BiFeO3                                  
   1.00000000000000     
     1.256237   -2.175867    0.000000
     1.256237    2.175867    0.000000
     0.000000    0.000000    7.526459
   B    N 
     1     1
Direct
  0.000000  0.000000  0.000000
  0.333333  0.666667  0.000000
 
   28   28   84
 0.12465788761E+02 0.14657559279E+02 0.20395419661E+02 0.27634247177E+02 0.34185339586E+02
 0.38686856496E+02 0.40924944747E+02 0.41532185380E+02 0.41374123315E+02 0.41114986688E+02
 0.41069924225E+02 0.41244052084E+02 0.41502443096E+02 0.41710328665E+02 0.41787925857E+02
 0.41708824757E+02 0.41497134138E+02 0.41236081452E+02 0.41068441876E+02 0.41122204148E+02
 0.41379914767E+02 0.41535775383E+02 0.40926560277E+02 0.38684036400E+02 0.34183410642E+02
 0.27633219724E+02 0.20395482452E+02 0.14657717046E+02 0.14657717046E+02 0.14657421881E+02
 0.18087800596E+02 0.23584730204E+02 0.29185712348E+02 0.33308655455E+02 0.35340850969E+02
 0.35568040553E+02 0.34733077679E+02 0.33556493372E+02 0.32494534906E+02 0.31740956677E+02
 0.31297170139E+02 0.31075846546E+02 0.30987468483E+02 0.30986156730E+02 0.31074640205E+02
 0.31300839942E+02 0.31747707487E+02 0.32499405222E+02 0.33557323231E+02 0.34732732362E+02
 0.35565302556E+02 0.35336508005E+02 0.33307560633E+02 0.29185270816E+02 0.23585474685E+02
 0.18088074352E+02 0.20395482452E+02 0.19141210990E+02 0.20395449711E+02 0.23584323988E+02
 0.27333434672E+02 0.30249707110E+02 0.31566990259E+02 0.31312747792E+02 0.30006239296E+02
 0.28267110700E+02 0.26568175050E+02 0.25166094598E+02 0.24145712257E+02 0.23484626642E+02
 0.23123139175E+02 0.23009036851E+02 0.23123498268E+02 0.23485911589E+02 0.24148019106E+02
 0.25168902237E+02 0.26568758537E+02 0.28263723221E+02 0.29998971590E+02 0.31308349348E+02
 0.31568059052E+02 0.30252378275E+02 0.27336505510E+02 0.23585474685E+02 0.27633219724E+02
 0.26515434614E+02 0.26515777020E+02 0.27633665949E+02 0.29185776856E+02 0.30250898974E+02
 0.30217038682E+02 0.29024608595E+02 0.27048158860E+02 0.24781727874E+02 0.22606525981E+02
 0.20743423057E+02 0.19287310290E+02 0.18250480046E+02 0.17597111526E+02 0.17284411943E+02
 0.17285079626E+02 0.17598788735E+02 0.18252095899E+02 0.19288010370E+02 0.20741039824E+02
 0.22601795954E+02 0.24778387060E+02 0.27049191230E+02 0.29027491271E+02 0.30218839978E+02
 0.30252378275E+02 0.29185270816E+02 0.34183410642E+02 0.34453609198E+02 0.34486584797E+02
 0.34454563211E+02 0.34185335085E+02 0.33309831744E+02 0.31566996225E+02 0.29023150805E+02
 0.26024008965E+02 0.22993301390E+02 0.20248247967E+02 0.17942770410E+02 0.16117024549E+02
 0.14755120108E+02 0.13825155412E+02 0.13287934049E+02 0.13113014321E+02 0.13288496978E+02
 0.13825083204E+02 0.14752599457E+02 0.16111036477E+02 0.17938244965E+02 0.20248457740E+02
 0.22998257508E+02 0.26029883346E+02 0.29027491271E+02 0.31568059052E+02 0.33307560633E+02
 0.38684036400E+02 0.41026839567E+02 0.42215854556E+02 0.42216281816E+02 0.41028618299E+02
 0.38686832037E+02 0.35340999738E+02 0.31310873560E+02 0.27048131315E+02 0.22994781253E+02
 0.19451472760E+02 0.16543298410E+02 0.14268698725E+02 0.12567166408E+02 0.11360890778E+02
 0.10589873729E+02 0.10214308665E+02 0.10214456837E+02 0.10589829028E+02 0.11359959936E+02
 0.12566364214E+02 0.14270410785E+02 0.16546329172E+02 0.19455234553E+02 0.22998257508E+02
 0.27049191230E+02 0.31308349348E+02 0.35336508005E+02 0.40926560277E+02 0.45418711906E+02
 0.48412139380E+02 0.49461740477E+02 0.48408606033E+02 0.45414766966E+02 0.40924712115E+02
 0.35568613990E+02 0.30006215167E+02 0.24783902966E+02 0.20248222282E+02 0.16542139701E+02
 0.13655994540E+02 0.11494787575E+02 0.99465642523E+01 0.89083634256E+01 0.83099718944E+01
 0.81140506114E+01 0.83091905071E+01 0.89071803497E+01 0.99461239409E+01 0.11496926169E+02
 0.13659253444E+02 0.16546329172E+02 0.20248457740E+02 0.24778387060E+02 0.29998971590E+02
 0.35565302556E+02 0.41535775383E+02 0.47904737878E+02 0.52901532121E+02 0.55660759172E+02
 0.55660184348E+02 0.52899624474E+02 0.47902954020E+02 0.41534575626E+02 0.34733362740E+02
 0.28266640224E+02 0.22606589827E+02 0.17940927911E+02 0.14268943905E+02 0.11495523414E+02
 0.94803422855E+01 0.80919799791E+01 0.72238143569E+01 0.68060539533E+01 0.68061460545E+01
 0.72239227991E+01 0.80926868913E+01 0.94815668880E+01 0.11496926169E+02 0.14270410785E+02
 0.17938244965E+02 0.22601795954E+02 0.28263723221E+02 0.34732732362E+02 0.41379914767E+02
 0.49318424973E+02 0.56299591898E+02 0.61128988845E+02 0.62860021198E+02 0.61129781802E+02
 0.56297308607E+02 0.49313112409E+02 0.41374310361E+02 0.33554252944E+02 0.26568244509E+02
 0.20743998134E+02 0.16117071362E+02 0.12568723272E+02 0.99463897664E+01 0.80919712999E+01
 0.68703105684E+01 0.61790579476E+01 0.59553602931E+01 0.61790883770E+01 0.68707091025E+01
 0.80926868913E+01 0.99461239409E+01 0.12566364214E+02 0.16111036477E+02 0.20741039824E+02
 0.26568758537E+02 0.33557323231E+02 0.41122204148E+02 0.50445788799E+02 0.59388286554E+02
 0.66537766810E+02 0.70533348175E+02 0.70535948790E+02 0.66544964749E+02 0.59394950237E+02
 0.50444859950E+02 0.41114659065E+02 0.32494845846E+02 0.25168266391E+02 0.19287317537E+02
 0.14754612163E+02 0.11361060901E+02 0.89071620710E+01 0.72238719783E+01 0.61790283410E+01
 0.56807097368E+01 0.56804968728E+01 0.61790883770E+01 0.72239227991E+01 0.89071803497E+01
 0.11359959936E+02 0.14752599457E+02 0.19288010370E+02 0.25168902237E+02 0.32499405222E+02
 0.41068441876E+02 0.51692342212E+02 0.62610613889E+02 0.72293230264E+02 0.79037155999E+02
 0.81464205415E+02 0.79037722756E+02 0.72294149774E+02 0.62613735217E+02 0.51701014147E+02
 0.41070009709E+02 0.31741758308E+02 0.24145566436E+02 0.18249291047E+02 0.13825133758E+02
 0.10590767427E+02 0.83097871031E+01 0.68063441117E+01 0.59553800662E+01 0.56807097368E+01
 0.59553602931E+01 0.68061460545E+01 0.83091905071E+01 0.10589829028E+02 0.13825083204E+02
 0.18252095899E+02 0.24148019106E+02 0.31747707487E+02 0.41236081452E+02 0.53063038629E+02
 0.65929876534E+02 0.78383538451E+02 0.88443684408E+02 0.94102671436E+02 0.94102160176E+02
 0.88443678878E+02 0.78389436463E+02 0.65933215886E+02 0.53064351322E+02 0.41242123882E+02
 0.31297619597E+02 0.23484253019E+02 0.17597836289E+02 0.13288064689E+02 0.10214556423E+02
 0.81138795965E+01 0.68063441117E+01 0.61790283410E+01 0.61790579476E+01 0.68060539533E+01
 0.81140506114E+01 0.10214456837E+02 0.13288496978E+02 0.17598788735E+02 0.23485911589E+02
 0.31300839942E+02 0.41497134138E+02 0.54351819683E+02 0.69106826394E+02 0.84492778131E+02
 0.98275596375E+02 0.10790127898E+03 0.11135854677E+03 0.10789393787E+03 0.98264178780E+02
 0.84485623623E+02 0.69111946740E+02 0.54352606740E+02 0.41502275573E+02 0.31078074895E+02
 0.23123132138E+02 0.17285209985E+02 0.13112125197E+02 0.10214556423E+02 0.83097871031E+01
 0.72238719783E+01 0.68703105684E+01 0.72238143569E+01 0.83099718944E+01 0.10214308665E+02
 0.13113014321E+02 0.17285079626E+02 0.23123498268E+02 0.31074640205E+02 0.41708824757E+02
 0.55353893360E+02 0.71776609511E+02 0.89855474044E+02 0.10717934254E+03 0.12083414114E+03
 0.12834029154E+03 0.12834041413E+03 0.12083201249E+03 0.10717609176E+03 0.89846586908E+02
 0.71776041712E+02 0.55357420450E+02 0.41710781388E+02 0.30988913255E+02 0.23007720416E+02
 0.17285209985E+02 0.13288064689E+02 0.10590767427E+02 0.89071620710E+01 0.80919712999E+01
 0.80919799791E+01 0.89083634256E+01 0.10589873729E+02 0.13287934049E+02 0.17284411943E+02
 0.23009036851E+02 0.30986156730E+02 0.41787925857E+02 0.55904012990E+02 0.73538941809E+02
 0.93713719294E+02 0.11380142572E+03 0.13058200694E+03 0.14150495588E+03 0.14526601352E+03
 0.14150900484E+03 0.13058717368E+03 0.11380569510E+03 0.93711867363E+02 0.73534194099E+02
 0.55903507744E+02 0.41786541764E+02 0.30988913255E+02 0.23123132138E+02 0.17597836289E+02
 0.13825133758E+02 0.11361060901E+02 0.99463897664E+01 0.94803422855E+01 0.99465642523E+01
 0.11360890778E+02 0.13825155412E+02 0.17597111526E+02 0.23123139175E+02 0.30987468483E+02
 0.41710328665E+02 0.55905253314E+02 0.74149901981E+02 0.95679307818E+02 0.11759344179E+03
 0.13615647786E+03 0.14877008634E+03 0.15486439786E+03 0.15487002867E+03 0.14878267622E+03
 0.13616659772E+03 0.11759918605E+03 0.95679019784E+02 0.74143784918E+02 0.55903507744E+02
 0.41710781388E+02 0.31078074895E+02 0.23484253019E+02 0.18249291047E+02 0.14754612163E+02
 0.12568723272E+02 0.11495523414E+02 0.11494787575E+02 0.12567166408E+02 0.14755120108E+02
 0.18250480046E+02 0.23484626642E+02 0.31075846546E+02 0.41502443096E+02 0.55356964035E+02
 0.73534167266E+02 0.95676193557E+02 0.11878419201E+03 0.13834995912E+03 0.15115182396E+03
 0.15724817418E+03 0.15884511009E+03 0.15724661016E+03 0.15115193789E+03 0.13835141245E+03
 0.11878478695E+03 0.95679019784E+02 0.73534194099E+02 0.55357420450E+02 0.41502275573E+02
 0.31297619597E+02 0.24145566436E+02 0.19287317537E+02 0.16117071362E+02 0.14268943905E+02
 0.13655994540E+02 0.14268698725E+02 0.16117024549E+02 0.19287310290E+02 0.24145712257E+02
 0.31297170139E+02 0.41244052084E+02 0.54353299097E+02 0.71772828235E+02 0.93704803272E+02
 0.11759572036E+03 0.13835393055E+03 0.15145229305E+03 0.15641859126E+03 0.15693622195E+03
 0.15693113763E+03 0.15640747310E+03 0.15144247369E+03 0.13835141245E+03 0.11759918605E+03
 0.93711867363E+02 0.71776041712E+02 0.54352606740E+02 0.41242123882E+02 0.31741758308E+02
 0.25168266391E+02 0.20743998134E+02 0.17940927911E+02 0.16542139701E+02 0.16543298410E+02
 0.17942770410E+02 0.20743423057E+02 0.25166094598E+02 0.31740956677E+02 0.41069924225E+02
 0.53063965695E+02 0.69111340669E+02 0.89844285382E+02 0.11380425561E+03 0.13616565121E+03
 0.15115715676E+03 0.15641398950E+03 0.15528313900E+03 0.15388850880E+03 0.15527967207E+03
 0.15640747310E+03 0.15115193789E+03 0.13616659772E+03 0.11380569510E+03 0.89846586908E+02
 0.69111946740E+02 0.53064351322E+02 0.41070009709E+02 0.32494845846E+02 0.26568244509E+02
 0.22606589827E+02 0.20248222282E+02 0.19451472760E+02 0.20248247967E+02 0.22606525981E+02
 0.26568175050E+02 0.32494534906E+02 0.41114986688E+02 0.51698800864E+02 0.65932079750E+02
 0.84487781779E+02 0.10717832082E+03 0.13058535131E+03 0.14877676869E+03 0.15723956198E+03
 0.15692947786E+03 0.15388841577E+03 0.15388850880E+03 0.15693113763E+03 0.15724661016E+03
 0.14878267622E+03 0.13058717368E+03 0.10717609176E+03 0.84485623623E+02 0.65933215886E+02
 0.51701014147E+02 0.41114659065E+02 0.33554252944E+02 0.28266640224E+02 0.24783902966E+02
 0.22994781253E+02 0.22993301390E+02 0.24781727874E+02 0.28267110700E+02 0.33556493372E+02
 0.41374123315E+02 0.50444306200E+02 0.62613650684E+02 0.78389618856E+02 0.98266717729E+02
 0.12083368187E+03 0.14150912355E+03 0.15486417193E+03 0.15883564625E+03 0.15692947786E+03
 0.15528313900E+03 0.15693622195E+03 0.15884511009E+03 0.15487002867E+03 0.14150900484E+03
 0.12083201249E+03 0.98264178780E+02 0.78389436463E+02 0.62613735217E+02 0.50444859950E+02
 0.41374310361E+02 0.34733362740E+02 0.30006215167E+02 0.27048131315E+02 0.26024008965E+02
 0.27048158860E+02 0.30006239296E+02 0.34733077679E+02 0.41532185380E+02 0.49312469025E+02
 0.59395731068E+02 0.72293786660E+02 0.88440675588E+02 0.10789365012E+03 0.12834397938E+03
 0.14526946888E+03 0.15486417193E+03 0.15723956198E+03 0.15641398950E+03 0.15641859126E+03
 0.15724817418E+03 0.15486439786E+03 0.14526601352E+03 0.12834041413E+03 0.10789393787E+03
 0.88443678878E+02 0.72294149774E+02 0.59394950237E+02 0.49313112409E+02 0.41534575626E+02
 0.35568613990E+02 0.31310873560E+02 0.29023150805E+02 0.29024608595E+02 0.31312747792E+02
 0.35568040553E+02 0.40924944747E+02 0.47902868152E+02 0.56297315817E+02 0.66542913025E+02
 0.79035779577E+02 0.94098911904E+02 0.11135891348E+03 0.12834397938E+03 0.14150912355E+03
 0.14877676869E+03 0.15115715676E+03 0.15145229305E+03 0.15115182396E+03 0.14877008634E+03
 0.14150495588E+03 0.12834029154E+03 0.11135854677E+03 0.94102160176E+02 0.79037722756E+02
 0.66544964749E+02 0.56297308607E+02 0.47902954020E+02 0.40924712115E+02 0.35340999738E+02
 0.31566996225E+02 0.30217038682E+02 0.31566990259E+02 0.35340850969E+02 0.38686856496E+02
 0.45416644815E+02 0.52900117098E+02 0.61130043588E+02 0.70535093608E+02 0.81463581732E+02
 0.94098911904E+02 0.10789365012E+03 0.12083368187E+03 0.13058535131E+03 0.13616565121E+03
 0.13835393055E+03 0.13834995912E+03 0.13615647786E+03 0.13058200694E+03 0.12083414114E+03
 0.10790127898E+03 0.94102671436E+02 0.81464205415E+02 0.70535948790E+02 0.61129781802E+02
 0.52899624474E+02 0.45414766966E+02 0.38686832037E+02 0.33309831744E+02 0.30250898974E+02
 0.30249707110E+02 0.33308655455E+02 0.34185339586E+02 0.41028099771E+02 0.48408800264E+02
 0.55660705887E+02 0.62862636855E+02 0.70535093608E+02 0.79035779577E+02 0.88440675588E+02
 0.98266717729E+02 0.10717832082E+03 0.11380425561E+03 0.11759572036E+03 0.11878419201E+03
 0.11759344179E+03 0.11380142572E+03 0.10717934254E+03 0.98275596375E+02 0.88443684408E+02
 0.79037155999E+02 0.70533348175E+02 0.62860021198E+02 0.55660184348E+02 0.48408606033E+02
 0.41028618299E+02 0.34185335085E+02 0.29185776856E+02 0.27333434672E+02 0.29185712348E+02
 0.27634247177E+02 0.34454319147E+02 0.42214968943E+02 0.49460349336E+02 0.55660705887E+02
 0.61130043588E+02 0.66542913025E+02 0.72293786660E+02 0.78389618856E+02 0.84487781779E+02
 0.89844285382E+02 0.93704803272E+02 0.95676193557E+02 0.95679307818E+02 0.93713719294E+02
 0.89855474044E+02 0.84492778131E+02 0.78383538451E+02 0.72293230264E+02 0.66537766810E+02
 0.61128988845E+02 0.55660759172E+02 0.49461740477E+02 0.42216281816E+02 0.34454563211E+02
 0.27633665949E+02 0.23584323988E+02 0.23584730204E+02 0.20395419661E+02 0.26516112308E+02
 0.34486364361E+02 0.42214968943E+02 0.48408800264E+02 0.52900117098E+02 0.56297315817E+02
 0.59395731068E+02 0.62613650684E+02 0.65932079750E+02 0.69111340669E+02 0.71772828235E+02
 0.73534167266E+02 0.74149901981E+02 0.73538941809E+02 0.71776609511E+02 0.69106826394E+02
 0.65929876534E+02 0.62610613889E+02 0.59388286554E+02 0.56299591898E+02 0.52901532121E+02
 0.48412139380E+02 0.42215854556E+02 0.34486584797E+02 0.26515777020E+02 0.20395449711E+02
 0.18087800596E+02 0.14657559279E+02 0.19140924068E+02 0.26516112308E+02 0.34454319147E+02
 0.41028099771E+02 0.45416644815E+02 0.47902868152E+02 0.49312469025E+02 0.50444306200E+02
 0.51698800864E+02 0.53063965695E+02 0.54353299096E+02 0.55356964035E+02 0.55905253314E+02
 0.55904012990E+02 0.55353893360E+02 0.54351819683E+02 0.53063038629E+02 0.51692342212E+02
 0.50445788799E+02 0.49318424973E+02 0.47904737878E+02 0.45418711906E+02 0.41026839567E+02
 0.34453609198E+02 0.26515434614E+02 0.19141210990E+02 0.14657421881E+02 0.13066279467E+02
 0.15148446466E+02 0.20599064981E+02 0.27474101487E+02 0.33693295012E+02 0.37961504242E+02
 0.40075964933E+02 0.40637480890E+02 0.40475280059E+02 0.40220681876E+02 0.40174260067E+02
 0.40343426797E+02 0.40597627661E+02 0.40801824521E+02 0.40878377226E+02 0.40800575202E+02
 0.40591716945E+02 0.40335619040E+02 0.40172228218E+02 0.40225660011E+02 0.40480157938E+02
 0.40642566152E+02 0.40078590764E+02 0.37959962143E+02 0.33691603460E+02 0.27472920740E+02
 0.20598857508E+02 0.15148576031E+02 0.15148532638E+02 0.15148183948E+02 0.18396869633E+02
 0.23600128596E+02 0.28894962898E+02 0.32780983777E+02 0.34676318836E+02 0.34855916585E+02
 0.34025645790E+02 0.32875841109E+02 0.31843649995E+02 0.31110050820E+02 0.30674860312E+02
 0.30456687121E+02 0.30368793953E+02 0.30367573443E+02 0.30455423727E+02 0.30677563908E+02
 0.31114466327E+02 0.31847575655E+02 0.32878574030E+02 0.34027336417E+02 0.34853706467E+02
 0.34672353459E+02 0.32778977706E+02 0.28893791161E+02 0.23600397934E+02 0.18397180949E+02
 0.20598906148E+02 0.19417412978E+02 0.20598701806E+02 0.23598928377E+02 0.27117155129E+02
 0.29834978070E+02 0.31030370264E+02 0.30730292209E+02 0.29433780149E+02 0.27730304784E+02
 0.26071167591E+02 0.24704221352E+02 0.23709810194E+02 0.23063188242E+02 0.22708351831E+02
 0.22595649467E+02 0.22707751821E+02 0.23063601403E+02 0.23711807283E+02 0.24708721005E+02
 0.26073870414E+02 0.27727546697E+02 0.29426541587E+02 0.30725694255E+02 0.31030141505E+02
 0.29837244077E+02 0.27120117453E+02 0.23600418661E+02 0.27473004145E+02 0.26440235560E+02
 0.26440383769E+02 0.27473211345E+02 0.28893750788E+02 0.29835589201E+02 0.29725008169E+02
 0.28513618974E+02 0.26559303578E+02 0.24335880275E+02 0.22209280705E+02 0.20389051187E+02
 0.18965391301E+02 0.17951679579E+02 0.17311699683E+02 0.17005067468E+02 0.17005828512E+02
 0.17313516389E+02 0.17953711052E+02 0.18967251000E+02 0.20387035528E+02 0.22204431893E+02
 0.24332300642E+02 0.26558988430E+02 0.28514798243E+02 0.29726780783E+02 0.29837211601E+02
 0.28893809360E+02 0.33691618794E+02 0.34002411531E+02 0.34053043909E+02 0.34003390345E+02
 0.33693345263E+02 0.32780071184E+02 0.31028016003E+02 0.28509242444E+02 0.25563131009E+02
 0.22595290191E+02 0.19908197573E+02 0.17651782869E+02 0.15864873240E+02 0.14530532294E+02
 0.13619204372E+02 0.13092238057E+02 0.12920503357E+02 0.13092970221E+02 0.13619544810E+02
 0.14528792425E+02 0.15859176382E+02 0.17647257290E+02 0.19907198225E+02 0.22598023246E+02
 0.25568347064E+02 0.28514788525E+02 0.31030108199E+02 0.32778916745E+02 0.37959878577E+02
 0.40267320588E+02 0.41441253392E+02 0.41442136952E+02 0.40269728925E+02 0.37963541724E+02
 0.34676467731E+02 0.30727362892E+02 0.26556044376E+02 0.22592895387E+02 0.19129820185E+02
 0.16285044289E+02 0.14056320616E+02 0.12387458410E+02 0.11202804911E+02 0.10445582727E+02
 0.10076801234E+02 0.10076922019E+02 0.10445706431E+02 0.11202084154E+02 0.12386031705E+02
 0.14056875637E+02 0.16286195065E+02 0.19132945267E+02 0.22598044033E+02 0.26559010403E+02
 0.30725671328E+02 0.34672355660E+02 0.40078651988E+02 0.44455697061E+02 0.47372487227E+02
 0.48395063617E+02 0.47369255343E+02 0.44452391478E+02 0.40078169841E+02 0.34857568817E+02
 0.29433783901E+02 0.24337020990E+02 0.19904976583E+02 0.16280649481E+02 0.13455420726E+02
 0.11335935153E+02 0.98156218510E+01 0.87946714510E+01 0.82059512254E+01 0.80133522818E+01
 0.82053663476E+01 0.87934028845E+01 0.98146109230E+01 0.11337522188E+02 0.13458422854E+02
 0.16286203789E+02 0.19907244115E+02 0.24332318914E+02 0.29426557411E+02 0.34853712989E+02
 0.40642639208E+02 0.46828741910E+02 0.51677882108E+02 0.54354418536E+02 0.54353511810E+02
 0.51675942776E+02 0.46826807818E+02 0.40642730502E+02 0.34029145877E+02 0.27730767046E+02
 0.22209354885E+02 0.17649320305E+02 0.14054307972E+02 0.11335846546E+02 0.93574386517E+01
 0.79930398380E+01 0.71389942736E+01 0.67276792327E+01 0.67276655620E+01 0.71388363496E+01
 0.79934275271E+01 0.93586957494E+01 0.11337488861E+02 0.14056864012E+02 0.17647256659E+02
 0.22204446950E+02 0.27727499165E+02 0.34027364965E+02 0.40480189276E+02 0.48181670564E+02
 0.54946379787E+02 0.59621895889E+02 0.61296885464E+02 0.59621411531E+02 0.54942810025E+02
 0.48175559971E+02 0.40475440786E+02 0.32877517762E+02 0.26074436241E+02 0.20390289894E+02
 0.15864920415E+02 0.12387426644E+02 0.98144106664E+01 0.79924681488E+01 0.67912345187E+01
 0.61111887334E+01 0.58910655739E+01 0.61111863444E+01 0.67917372962E+01 0.79934104255E+01
 0.98145810376E+01 0.12385996640E+02 0.15859192387E+02 0.20387008078E+02 0.26073853113E+02
 0.32878498792E+02 0.40225567744E+02 0.49267459809E+02 0.57927166215E+02 0.64844638010E+02
 0.68708643665E+02 0.68711515555E+02 0.64851102532E+02 0.57932549908E+02 0.49264082902E+02
 0.40216609476E+02 0.31843975080E+02 0.24709581142E+02 0.18967677024E+02 0.14531555073E+02
 0.11202958601E+02 0.87932776546E+01 0.71387785203E+01 0.61111860519E+01 0.56208866616E+01
 0.56207472287E+01 0.61112127086E+01 0.71388566753E+01 0.87933779947E+01 0.11202100321E+02
 0.14528804512E+02 0.18967281675E+02 0.24708681911E+02 0.31847594022E+02 0.40172273808E+02
 0.50476533944E+02 0.61052540606E+02 0.70421017078E+02 0.76939810408E+02 0.79284499147E+02
 0.76941336484E+02 0.70422997997E+02 0.61056687387E+02 0.50484840467E+02 0.40171084320E+02
 0.31107569219E+02 0.23709635922E+02 0.17951356322E+02 0.13620246216E+02 0.10446695576E+02
 0.82058086589E+01 0.67278378782E+01 0.58910986778E+01 0.56209142930E+01 0.58910798250E+01
 0.67277016310E+01 0.82053764986E+01 0.10445717896E+02 0.13619575066E+02 0.17953732065E+02
 0.23711833259E+02 0.31114475591E+02 0.40335607663E+02 0.51814960326E+02 0.64282719226E+02
 0.76325091689E+02 0.86040463601E+02 0.91503526901E+02 0.91503654130E+02 0.86042571582E+02
 0.76331663076E+02 0.64285216801E+02 0.51817217848E+02 0.40340921697E+02 0.30673021559E+02
 0.23061979351E+02 0.17312384779E+02 0.13092987830E+02 0.10077174131E+02 0.80133015348E+01
 0.67278381202E+01 0.61112501590E+01 0.61111214022E+01 0.67276429218E+01 0.80133552654E+01
 0.10076994827E+02 0.13092885158E+02 0.17313495134E+02 0.23063590182E+02 0.30677676889E+02
 0.40592054604E+02 0.53076383286E+02 0.67370366974E+02 0.82249668758E+02 0.95580065536E+02
 0.10489309660E+03 0.10824002979E+03 0.10488582240E+03 0.95569790341E+02 0.82245825962E+02
 0.67376019078E+02 0.53077179474E+02 0.40597549141E+02 0.30457070625E+02 0.22707475401E+02
 0.17005208619E+02 0.12919951268E+02 0.10076680534E+02 0.82061007287E+01 0.71387004428E+01
 0.67915408396E+01 0.71384162436E+01 0.82062276609E+01 0.10076714456E+02 0.12920825682E+02
 0.17005240134E+02 0.22708040840E+02 0.30455296775E+02 0.40800990356E+02 0.54055418414E+02
 0.69965499867E+02 0.87480978101E+02 0.10429730361E+03 0.11758370909E+03 0.12490256359E+03
 0.12490228410E+03 0.11757953805E+03 0.10428989764E+03 0.87471786639E+02 0.69967651799E+02
 0.54059782334E+02 0.40803587346E+02 0.30369926078E+02 0.22594359893E+02 0.17005794117E+02
 0.13092416302E+02 0.10446377881E+02 0.87935677183E+01 0.79930019335E+01 0.79925527431E+01
 0.87943564975E+01 0.10445888957E+02 0.13092757564E+02 0.17004590722E+02 0.22595320309E+02
 0.30367881874E+02 0.40879556294E+02 0.54592172338E+02 0.71683814701E+02 0.91272968435E+02
 0.11086857704E+03 0.12734549386E+03 0.13814467843E+03 0.14187925272E+03 0.13814850276E+03
 0.12735039202E+03 0.11087058801E+03 0.91269398172E+02 0.71681248915E+02 0.54591838573E+02
 0.40877854929E+02 0.30370154596E+02 0.22708316809E+02 0.17312295359E+02 0.13619291093E+02
 0.11202897055E+02 0.98155583955E+01 0.93573855435E+01 0.98146768785E+01 0.11202727198E+02
 0.13620368106E+02 0.17311631519E+02 0.22707422683E+02 0.30368714040E+02 0.40803433799E+02
 0.54593643666E+02 0.72281635920E+02 0.93219208412E+02 0.11470015711E+03 0.13313379598E+03
 0.14587522202E+03 0.15213552145E+03 0.15214252732E+03 0.14588777625E+03 0.13314222787E+03
 0.11470467894E+03 0.93218924423E+02 0.72276489016E+02 0.54591143137E+02 0.40802538220E+02
 0.30459184877E+02 0.23062764205E+02 0.17950571710E+02 0.14529998525E+02 0.12388979967E+02
 0.11336595089E+02 0.11335153282E+02 0.12385910563E+02 0.14532067885E+02 0.17952443178E+02
 0.23062392167E+02 0.30455179447E+02 0.40597661298E+02 0.54059000528E+02 0.71680915274E+02
 0.93215550070E+02 0.11592030199E+03 0.13552709594E+03 0.14880904553E+03 0.15549621813E+03
 0.15736139894E+03 0.15550068360E+03 0.14881269609E+03 0.13552733216E+03 0.11592140181E+03
 0.93219617914E+02 0.71680103485E+02 0.54056997136E+02 0.40597245120E+02 0.30675335705E+02
 0.23709623970E+02 0.18965399246E+02 0.15864922714E+02 0.14056537686E+02 0.13455393140E+02
 0.14054034138E+02 0.15864891544E+02 0.18967610666E+02 0.23709795192E+02 0.30672533661E+02
 0.40342651650E+02 0.53077807933E+02 0.69964498459E+02 0.91263190047E+02 0.11470296279E+03
 0.13553217783E+03 0.14935842907E+03 0.15539541984E+03 0.15670962581E+03 0.15670499410E+03
 0.15538836397E+03 0.14934751516E+03 0.13552892706E+03 0.11470691837E+03 0.91272767198E+02
 0.69964054255E+02 0.53076574672E+02 0.40341540470E+02 0.31110849067E+02 0.24706273661E+02
 0.20389633378E+02 0.17650023510E+02 0.16283932071E+02 0.16281752975E+02 0.17651112076E+02
 0.20389764741E+02 0.24707489738E+02 0.31106761707E+02 0.40171105916E+02 0.51816750447E+02
 0.67375131586E+02 0.87469214329E+02 0.11086955016E+03 0.13314190886E+03 0.14881827874E+03
 0.15539352294E+03 0.15558830547E+03 0.15475384935E+03 0.15558722167E+03 0.15538507811E+03
 0.14880950831E+03 0.13314300648E+03 0.11087475489E+03 0.87472098327E+02 0.67372527268E+02
 0.51817211600E+02 0.40174296074E+02 0.31843996705E+02 0.26071250752E+02 0.22209384947E+02
 0.19908198488E+02 0.19129825644E+02 0.19905028088E+02 0.22209295711E+02 0.26074405321E+02
 0.31843653252E+02 0.40216940542E+02 0.50482708966E+02 0.64284126036E+02 0.82248076708E+02
 0.10429190311E+03 0.12734837431E+03 0.14588201448E+03 0.15549441577E+03 0.15670483525E+03
 0.15475462344E+03 0.15475477416E+03 0.15670810529E+03 0.15549463950E+03 0.14588607284E+03
 0.12735140001E+03 0.10429419913E+03 0.82242589601E+02 0.64284298239E+02 0.50485759272E+02
 0.40220403541E+02 0.32873720473E+02 0.27729812173E+02 0.24337942536E+02 0.22596698153E+02
 0.22591475170E+02 0.24334940458E+02 0.27731212126E+02 0.32879684048E+02 0.40475334937E+02
 0.49263588831E+02 0.61056914475E+02 0.76331825599E+02 0.95571791848E+02 0.11757972787E+03
 0.13814652828E+03 0.15213487354E+03 0.15735213624E+03 0.15670536032E+03 0.15559151450E+03
 0.15671350746E+03 0.15736142018E+03 0.15213770178E+03 0.13814737857E+03 0.11758222940E+03
 0.95569507560E+02 0.76328458192E+02 0.61056696675E+02 0.49267281675E+02 0.40475464325E+02
 0.34025856560E+02 0.29433777555E+02 0.26559234448E+02 0.25563170553E+02 0.26556003912E+02
 0.29433786387E+02 0.34028795689E+02 0.40640370811E+02 0.48174882425E+02 0.57933263375E+02
 0.70423027566E+02 0.86040625594E+02 0.10488645596E+03 0.12490593140E+03 0.14188171381E+03
 0.15213465696E+03 0.15548763952E+03 0.15539240323E+03 0.15539982541E+03 0.15550147810E+03
 0.15213409581E+03 0.14187821618E+03 0.12490309212E+03 0.10488888267E+03 0.86039525286E+02
 0.70421872284E+02 0.57933647990E+02 0.48178568524E+02 0.40639768639E+02 0.34856445845E+02
 0.30728477141E+02 0.28512236720E+02 0.28510667459E+02 0.30729155033E+02 0.34857033034E+02
 0.40078489848E+02 0.46826649259E+02 0.54942659589E+02 0.64848781353E+02 0.76939287106E+02
 0.91500883525E+02 0.10824103458E+03 0.12490695821E+03 0.13814899832E+03 0.14588099677E+03
 0.14881278548E+03 0.14935505032E+03 0.14881153681E+03 0.14587590772E+03 0.13814335205E+03
 0.12490278238E+03 0.10824221704E+03 0.91503554980E+02 0.76939054974E+02 0.64851031256E+02
 0.54945303602E+02 0.46826744979E+02 0.40075898481E+02 0.34676380288E+02 0.31030525585E+02
 0.29724930274E+02 0.31028114730E+02 0.34676229192E+02 0.37963673076E+02 0.44454134685E+02
 0.51676447672E+02 0.59621386738E+02 0.68710388666E+02 0.79283468151E+02 0.91500518438E+02
 0.10488732204E+03 0.11758511297E+03 0.12734975711E+03 0.13314145087E+03 0.13552937885E+03
 0.13552696200E+03 0.13313347536E+03 0.12734511904E+03 0.11758210041E+03 0.10489577040E+03
 0.91503991138E+02 0.79284035152E+02 0.68709399451E+02 0.59623524410E+02 0.51676370703E+02
 0.44451930225E+02 0.37961434322E+02 0.32782166332E+02 0.29836032184E+02 0.29834502612E+02
 0.32778916547E+02 0.33693539704E+02 0.40269161280E+02 0.47369779723E+02 0.54354012093E+02
 0.61299219325E+02 0.68709298609E+02 0.76937006884E+02 0.86036167509E+02 0.95571981664E+02
 0.10429672322E+03 0.11087294901E+03 0.11470216977E+03 0.11592051304E+03 0.11469962661E+03
 0.11086764266E+03 0.10429532030E+03 0.95579972569E+02 0.86041553754E+02 0.76940009511E+02
 0.68707167770E+02 0.61297098818E+02 0.54354517531E+02 0.47369438812E+02 0.40268244329E+02
 0.33693574622E+02 0.28894746160E+02 0.27117351183E+02 0.28893438129E+02 0.27473836771E+02
 0.34002987802E+02 0.41440971140E+02 0.48394025178E+02 0.54355315541E+02 0.59623675289E+02
 0.64849784602E+02 0.70420997512E+02 0.76328454378E+02 0.82244455091E+02 0.87470124677E+02
 0.91265565555E+02 0.93217655399E+02 0.93220937408E+02 0.91273961953E+02 0.87479756065E+02
 0.82249574387E+02 0.76325200030E+02 0.70421921419E+02 0.64843706038E+02 0.59621749804E+02
 0.54354611310E+02 0.48395970699E+02 0.41441221146E+02 0.34003229983E+02 0.27473414467E+02
 0.23599821255E+02 0.23599214991E+02 0.20598578485E+02 0.26440781644E+02 0.34052533610E+02
 0.41440172324E+02 0.47369048534E+02 0.51677017193E+02 0.54945262134E+02 0.57934494614E+02
 0.61056373102E+02 0.64283312757E+02 0.67372240867E+02 0.69961324136E+02 0.71680395140E+02
 0.72282526057E+02 0.71685090860E+02 0.69965923088E+02 0.67369542818E+02 0.64282824509E+02
 0.61052861641E+02 0.57927299372E+02 0.54945861952E+02 0.51678023703E+02 0.47372818413E+02
 0.41441370382E+02 0.34052542079E+02 0.26440510307E+02 0.20599048816E+02 0.18396984422E+02
 0.15148374063E+02 0.19417188515E+02 0.26440803671E+02 0.34002940487E+02 0.40268010099E+02
 0.44453543137E+02 0.46826875719E+02 0.48177989748E+02 0.49266732689E+02 0.50483500218E+02
 0.51816884006E+02 0.53077250187E+02 0.54056625356E+02 0.54592731501E+02 0.54592389068E+02
 0.54056050968E+02 0.53076815857E+02 0.51814833015E+02 0.50476661496E+02 0.49267584943E+02
 0.48181542207E+02 0.46828578289E+02 0.44455827355E+02 0.40267454423E+02 0.34002265441E+02
 0.26440086994E+02 0.19417529068E+02 0.15148357955E+02 0.14586383233E+02 0.16370707841E+02
 0.21041138044E+02 0.26928672885E+02 0.32246752463E+02 0.35881799225E+02 0.37661492788E+02
 0.38101982840E+02 0.37926977744E+02 0.37684499103E+02 0.37634594960E+02 0.37788733618E+02
 0.38026491911E+02 0.38218921042E+02 0.38291728571E+02 0.38217568788E+02 0.38019941954E+02
 0.37782335200E+02 0.37633332611E+02 0.37686431544E+02 0.37930202325E+02 0.38107808989E+02
 0.37664517430E+02 0.35881593185E+02 0.32245446791E+02 0.26927341192E+02 0.21040661535E+02
 0.16370834562E+02 0.16370751450E+02 0.16370463599E+02 0.19127054381E+02 0.23534409503E+02
 0.28000371362E+02 0.31244230949E+02 0.32771499034E+02 0.32825976737E+02 0.32015655917E+02
 0.30943151720E+02 0.29991270025E+02 0.29310929451E+02 0.28901357621E+02 0.28692200619E+02
 0.28606024498E+02 0.28605520774E+02 0.28691598265E+02 0.28902878405E+02 0.29312518694E+02
 0.29993324987E+02 0.30947539751E+02 0.32019156008E+02 0.32824678269E+02 0.32768557520E+02
 0.31241645959E+02 0.27998726210E+02 0.23534391604E+02 0.19127425759E+02 0.21040758561E+02
 0.20055539537E+02 0.21040483220E+02 0.23533025902E+02 0.26428950084E+02 0.28612095850E+02