   2   2   1   0
  0.2057286E+02  0.2512475E-09  0.2512475E-09  0.7526459E-09  0.5000000E-15
  1.000000000000000E-004
  CAR 
 BiFeO3                                  
     35.91577251    -22.52372543  301     -2.21599989      1.00000000
    -22.524  0.0000E+00  0.0000E+00
    -22.329  0.0000E+00  0.0000E+00
    -22.134  0.0000E+00  0.0000E+00
    -21.939  0.0000E+00  0.0000E+00
    -21.745  0.0000E+00  0.0000E+00
    -21.550  0.0000E+00  0.0000E+00
    -21.355  0.0000E+00  0.0000E+00
    -21.160  0.0000E+00  0.0000E+00
    -20.965  0.0000E+00  0.0000E+00
    -20.771  0.0000E+00  0.0000E+00
    -20.576  0.0000E+00  0.0000E+00
    -20.381  0.0000E+00  0.0000E+00
    -20.186  0.0000E+00  0.0000E+00
    -19.991  0.4124E-03  0.8033E-04
    -19.797  0.2214E+01  0.4314E+00
    -19.602  0.6952E+00  0.5668E+00
    -19.407  0.3868E+00  0.6422E+00
    -19.212  0.3546E+00  0.7112E+00
    -19.017  0.2946E+00  0.7686E+00
    -18.823  0.2571E+00  0.8187E+00
    -18.628  0.2384E+00  0.8652E+00
    -18.433  0.2540E+00  0.9146E+00
    -18.238  0.2362E+00  0.9607E+00
    -18.043  0.2023E+00  0.1000E+01
    -17.849  0.2277E+00  0.1044E+01
    -17.654  0.2031E+00  0.1084E+01
    -17.459  0.1717E+00  0.1117E+01
    -17.264  0.2765E+00  0.1171E+01
    -17.069  0.2876E+00  0.1227E+01
    -16.875  0.3029E+00  0.1286E+01
    -16.680  0.1626E+01  0.1603E+01
    -16.485  0.1023E+01  0.1802E+01
    -16.290  0.9954E+00  0.1996E+01
    -16.095  0.1977E-01  0.2000E+01
    -15.901  0.0000E+00  0.2000E+01
    -15.706  0.0000E+00  0.2000E+01
    -15.511  0.0000E+00  0.2000E+01
    -15.316  0.0000E+00  0.2000E+01
    -15.121  0.0000E+00  0.2000E+01
    -14.927  0.0000E+00  0.2000E+01
    -14.732  0.0000E+00  0.2000E+01
    -14.537  0.0000E+00  0.2000E+01
    -14.342  0.0000E+00  0.2000E+01
    -14.147  0.0000E+00  0.2000E+01
    -13.953  0.0000E+00  0.2000E+01
    -13.758  0.0000E+00  0.2000E+01
    -13.563  0.0000E+00  0.2000E+01
    -13.368  0.0000E+00  0.2000E+01
    -13.173  0.0000E+00  0.2000E+01
    -12.979  0.0000E+00  0.2000E+01
    -12.784  0.0000E+00  0.2000E+01
    -12.589  0.0000E+00  0.2000E+01
    -12.394  0.0000E+00  0.2000E+01
    -12.199  0.0000E+00  0.2000E+01
    -12.005  0.0000E+00  0.2000E+01
    -11.810  0.0000E+00  0.2000E+01
    -11.615  0.0000E+00  0.2000E+01
    -11.420  0.0000E+00  0.2000E+01
    -11.225  0.1623E-03  0.2000E+01
    -11.031  0.9682E+00  0.2189E+01
    -10.836  0.8090E+00  0.2346E+01
    -10.641  0.4659E+00  0.2437E+01
    -10.446  0.5172E+00  0.2538E+01
    -10.251  0.4633E+00  0.2628E+01
    -10.057  0.8144E+00  0.2787E+01
     -9.862  0.1480E+00  0.2815E+01
     -9.667  0.2169E+00  0.2858E+01
     -9.472  0.1436E+00  0.2886E+01
     -9.277  0.1305E+00  0.2911E+01
     -9.083  0.2776E+00  0.2965E+01
     -8.888  0.4611E+00  0.3055E+01
     -8.693  0.5826E+00  0.3169E+01
     -8.498  0.2373E+00  0.3215E+01
     -8.303  0.3638E+00  0.3286E+01
     -8.109  0.4322E+00  0.3370E+01
     -7.914  0.2952E+00  0.3427E+01
     -7.719  0.2969E+00  0.3485E+01
     -7.524  0.3714E+00  0.3557E+01
     -7.329  0.2729E+01  0.4089E+01
     -7.135  0.6659E+00  0.4219E+01
     -6.940  0.8857E+00  0.4391E+01
     -6.745  0.5204E+00  0.4493E+01
     -6.550  0.5930E+00  0.4608E+01
     -6.355  0.1212E+01  0.4844E+01
     -6.161  0.8542E+00  0.5011E+01
     -5.966  0.5313E+00  0.5114E+01
     -5.771  0.6363E+00  0.5238E+01
     -5.576  0.4669E+00  0.5329E+01
     -5.381  0.5707E+00  0.5440E+01
     -5.187  0.5032E+00  0.5538E+01
     -4.992  0.3295E+00  0.5602E+01
     -4.797  0.7149E+00  0.5742E+01
     -4.602  0.3033E+00  0.5801E+01
     -4.407  0.6536E+00  0.5928E+01
     -4.213  0.4136E+00  0.6009E+01
     -4.018  0.7327E+00  0.6151E+01
     -3.823  0.6763E+00  0.6283E+01
     -3.628  0.2027E+01  0.6678E+01
     -3.433  0.2849E+01  0.7233E+01
     -3.239  0.3143E+00  0.7294E+01
     -3.044  0.1240E+01  0.7536E+01
     -2.849  0.8073E+00  0.7693E+01
     -2.654  0.6219E+00  0.7814E+01
     -2.459  0.7053E+00  0.7952E+01
     -2.265  0.2485E+00  0.8000E+01
     -2.070  0.6327E-07  0.8000E+01
     -1.875  0.0000E+00  0.8000E+01
     -1.680  0.0000E+00  0.8000E+01
     -1.486  0.0000E+00  0.8000E+01
     -1.291  0.0000E+00  0.8000E+01
     -1.096  0.0000E+00  0.8000E+01
     -0.901  0.0000E+00  0.8000E+01
     -0.706  0.0000E+00  0.8000E+01
     -0.512  0.0000E+00  0.8000E+01
     -0.317  0.0000E+00  0.8000E+01
     -0.122  0.0000E+00  0.8000E+01
      0.073  0.0000E+00  0.8000E+01
      0.268  0.0000E+00  0.8000E+01
      0.462  0.0000E+00  0.8000E+01
      0.657  0.0000E+00  0.8000E+01
      0.852  0.0000E+00  0.8000E+01
      1.047  0.0000E+00  0.8000E+01
      1.242  0.0000E+00  0.8000E+01
      1.436  0.0000E+00  0.8000E+01
      1.631  0.0000E+00  0.8000E+01
      1.826  0.8385E-11  0.8000E+01
      2.021  0.5937E-01  0.8012E+01
      2.216  0.9560E+00  0.8198E+01
      2.410  0.4549E+00  0.8286E+01
      2.605  0.2513E+01  0.8776E+01
      2.800  0.1659E+01  0.9099E+01
      2.995  0.4770E+00  0.9192E+01
      3.190  0.1170E+01  0.9420E+01
      3.384  0.8539E+00  0.9586E+01
      3.579  0.6344E+00  0.9710E+01
      3.774  0.5902E+00  0.9825E+01
      3.969  0.4915E+00  0.9920E+01
      4.164  0.5195E+00  0.1002E+02
      4.358  0.5406E+00  0.1013E+02
      4.553  0.3501E+00  0.1020E+02
      4.748  0.6519E+00  0.1032E+02
      4.943  0.4069E+00  0.1040E+02
      5.138  0.6571E+00  0.1053E+02
      5.332  0.8228E+00  0.1069E+02
      5.527  0.4497E+00  0.1078E+02
      5.722  0.4311E+00  0.1086E+02
      5.917  0.3873E+00  0.1094E+02
      6.112  0.5809E+00  0.1105E+02
      6.306  0.3732E-01  0.1106E+02
      6.501  0.1452E+00  0.1109E+02
      6.696  0.2129E+00  0.1113E+02
      6.891  0.7785E+00  0.1128E+02
      7.086  0.8366E+00  0.1144E+02
      7.280  0.5754E+00  0.1155E+02
      7.475  0.1118E+01  0.1177E+02
      7.670  0.6574E+00  0.1190E+02
      7.865  0.6104E+00  0.1202E+02
      8.060  0.8525E+00  0.1218E+02
      8.254  0.6145E+00  0.1230E+02
      8.449  0.5738E+00  0.1242E+02
      8.644  0.1029E+01  0.1262E+02
      8.839  0.1349E+01  0.1288E+02
      9.034  0.1308E+01  0.1313E+02
      9.228  0.2170E+01  0.1356E+02
      9.423  0.4561E+01  0.1445E+02
      9.618  0.1015E+01  0.1464E+02
      9.813  0.1077E+01  0.1485E+02
     10.008  0.1497E+01  0.1514E+02
     10.202  0.2257E+01  0.1558E+02
     10.397  0.2169E+01  0.1601E+02
     10.592  0.1980E+01  0.1639E+02
     10.787  0.2506E+01  0.1688E+02
     10.982  0.9267E+00  0.1706E+02
     11.176  0.1035E+01  0.1726E+02
     11.371  0.1024E+01  0.1746E+02
     11.566  0.1329E+01  0.1772E+02
     11.761  0.1424E+01  0.1800E+02
     11.956  0.2425E+01  0.1847E+02
     12.150  0.1679E+01  0.1880E+02
     12.345  0.1750E+01  0.1914E+02
     12.540  0.1512E+01  0.1943E+02
     12.735  0.1109E+01  0.1965E+02
     12.930  0.6831E+00  0.1978E+02
     13.124  0.7796E+00  0.1993E+02
     13.319  0.5022E+00  0.2003E+02
     13.514  0.8295E+00  0.2019E+02
     13.709  0.1230E+01  0.2043E+02
     13.904  0.1065E+01  0.2064E+02
     14.098  0.1836E+01  0.2100E+02
     14.293  0.1122E+01  0.2122E+02
     14.488  0.8144E+00  0.2138E+02
     14.683  0.1260E+01  0.2162E+02
     14.878  0.8099E+00  0.2178E+02
     15.072  0.8793E+00  0.2195E+02
     15.267  0.6397E+00  0.2207E+02
     15.462  0.9463E+00  0.2226E+02
     15.657  0.9881E+00  0.2245E+02
     15.852  0.1119E+01  0.2267E+02
     16.046  0.1236E+01  0.2291E+02
     16.241  0.8740E+00  0.2308E+02
     16.436  0.7198E+00  0.2322E+02
     16.631  0.1227E+01  0.2346E+02
     16.826  0.1408E+01  0.2373E+02
     17.020  0.1043E+01  0.2394E+02
     17.215  0.1317E+01  0.2419E+02
     17.410  0.2653E+01  0.2471E+02
     17.605  0.4201E+00  0.2479E+02
     17.800  0.6962E+00  0.2493E+02
     17.994  0.9617E+00  0.2511E+02
     18.189  0.1476E+01  0.2540E+02
     18.384  0.1182E+01  0.2563E+02
     18.579  0.9369E+00  0.2582E+02
     18.774  0.8047E+00  0.2597E+02
     18.968  0.1320E+01  0.2623E+02
     19.163  0.6236E+00  0.2635E+02
     19.358  0.1384E+01  0.2662E+02
     19.553  0.7793E+00  0.2677E+02
     19.748  0.7105E+00  0.2691E+02
     19.942  0.6424E+00  0.2704E+02
     20.137  0.7188E+00  0.2718E+02
     20.332  0.8766E+00  0.2735E+02
     20.527  0.1321E+01  0.2760E+02
     20.722  0.2033E+01  0.2800E+02
     20.916  0.1838E+01  0.2836E+02
     21.111  0.1153E+01  0.2858E+02
     21.306  0.1102E+01  0.2880E+02
     21.501  0.1747E+01  0.2914E+02
     21.695  0.1083E+01  0.2935E+02
     21.890  0.1228E+01  0.2959E+02
     22.085  0.8837E+00  0.2976E+02
     22.280  0.1122E+01  0.2998E+02
     22.475  0.1269E+01  0.3023E+02
     22.669  0.6269E+00  0.3035E+02
     22.864  0.6854E+00  0.3048E+02
     23.059  0.1105E+01  0.3070E+02
     23.254  0.1824E+01  0.3105E+02
     23.449  0.1850E+01  0.3141E+02
     23.643  0.1381E+01  0.3168E+02
     23.838  0.1971E+01  0.3207E+02
     24.033  0.1502E+01  0.3236E+02
     24.228  0.9278E+00  0.3254E+02
     24.423  0.1606E+01  0.3285E+02
     24.617  0.1481E+01  0.3314E+02
     24.812  0.8472E+00  0.3330E+02
     25.007  0.1185E+01  0.3354E+02
     25.202  0.2369E+01  0.3400E+02
     25.397  0.1205E+01  0.3423E+02
     25.591  0.1155E+01  0.3446E+02
     25.786  0.1141E+01  0.3468E+02
     25.981  0.1041E+01  0.3488E+02
     26.176  0.1067E+01  0.3509E+02
     26.371  0.9360E+00  0.3527E+02
     26.565  0.9578E+00  0.3546E+02
     26.760  0.1365E+01  0.3572E+02
     26.955  0.9952E+00  0.3592E+02
     27.150  0.7410E+00  0.3606E+02
     27.345  0.1784E+01  0.3641E+02
     27.539  0.3254E+01  0.3704E+02
     27.734  0.5793E+00  0.3716E+02
     27.929  0.3538E+00  0.3723E+02
     28.124  0.2122E+00  0.3727E+02
     28.319  0.3225E+00  0.3733E+02
     28.513  0.3768E+00  0.3740E+02
     28.708  0.1538E+01  0.3770E+02
     28.903  0.9015E+00  0.3788E+02
     29.098  0.6750E+00  0.3801E+02
     29.293  0.1069E+01  0.3822E+02
     29.487  0.5508E+00  0.3833E+02
     29.682  0.4671E+00  0.3842E+02
     29.877  0.1717E+00  0.3845E+02
     30.072  0.2555E+00  0.3850E+02
     30.267  0.1896E-01  0.3850E+02
     30.461  0.3365E+01  0.3916E+02
     30.656  0.7856E+00  0.3931E+02
     30.851  0.2299E+00  0.3936E+02
     31.046  0.1687E+00  0.3939E+02
     31.241  0.4533E+00  0.3948E+02
     31.435  0.1740E+00  0.3951E+02
     31.630  0.3898E+00  0.3959E+02
     31.825  0.2696E+00  0.3964E+02
     32.020  0.4593E+00  0.3973E+02
     32.215  0.1830E+00  0.3977E+02
     32.409  0.1751E+00  0.3980E+02
     32.604  0.6442E-01  0.3981E+02
     32.799  0.3755E-01  0.3982E+02
     32.994  0.5261E-01  0.3983E+02
     33.189  0.6865E+00  0.3996E+02
     33.383  0.1887E+00  0.4000E+02
     33.578  0.1696E-04  0.4000E+02
     33.773  0.0000E+00  0.4000E+02
     33.968  0.0000E+00  0.4000E+02
     34.163  0.0000E+00  0.4000E+02
     34.357  0.0000E+00  0.4000E+02
     34.552  0.0000E+00  0.4000E+02
     34.747  0.0000E+00  0.4000E+02
     34.942  0.0000E+00  0.4000E+02
     35.137  0.0000E+00  0.4000E+02
     35.331  0.0000E+00  0.4000E+02
     35.526  0.0000E+00  0.4000E+02
     35.721  0.0000E+00  0.4000E+02
     35.916  0.0000E+00  0.4000E+02
     35.91577251    -22.52372543  301     -2.21599989      1.00000000
    -22.524  0.0000E+00  0.0000E+00  0.0000E+00  0.0000E+00  0.0000E+00  0.0000E+00  0.0000E+00  0.0000E+00  0.0000E+00
    -22.329  0.0000E+00  0.0000E+00  0.0000E+00  0.0000E+00  0.0000E+00  0.0000E+00  0.0000E+00  0.0000E+00  0.0000E+00
    -22.134  0.0000E+00  0.0000E+00  0.0000E+00  0.0000E+00  0.0000E+00  0.0000E+00  0.0000E+00  0.0000E+00  0.0000E+00
    -21.939  0.0000E+00  0.0000E+00  0.0000E+00  0.0000E+00  0.0000E+00  0.0000E+00  0.0000E+00  0.0000E+00  0.0000E+00
    -21.745  0.0000E+00  0.0000E+00  0.0000E+00  0.0000E+00  0.0000E+00  0.0000E+00  0.0000E+00  0.0000E+00  0.0000E+00
    -21.550  0.0000E+00  0.0000E+00  0.0000E+00  0.0000E+00  0.0000E+00  0.0000E+00  0.0000E+00  0.0000E+00  0.0000E+00
    -21.355  0.0000E+00  0.0000E+00  0.0000E+00  0.0000E+00  0.0000E+00  0.0000E+00  0.0000E+00  0.0000E+00  0.0000E+00
    -21.160  0.0000E+00  0.0000E+00  0.0000E+00  0.0000E+00  0.0000E+00  0.0000E+00  0.0000E+00  0.0000E+00  0.0000E+00
    -20.965  0.0000E+00  0.0000E+00  0.0000E+00  0.0000E+00  0.0000E+00  0.0000E+00  0.0000E+00  0.0000E+00  0.0000E+00
    -20.771  0.0000E+00  0.0000E+00  0.0000E+00  0.0000E+00  0.0000E+00  0.0000E+00  0.0000E+00  0.0000E+00  0.0000E+00
    -20.576  0.0000E+00  0.0000E+00  0.0000E+00  0.0000E+00  0.0000E+00  0.0000E+00  0.0000E+00  0.0000E+00  0.0000E+00
    -20.381  0.0000E+00  0.0000E+00  0.0000E+00  0.0000E+00  0.0000E+00  0.0000E+00  0.0000E+00  0.0000E+00  0.0000E+00
    -20.186  0.0000E+00  0.0000E+00  0.0000E+00  0.0000E+00  0.0000E+00  0.0000E+00  0.0000E+00  0.0000E+00  0.0000E+00
    -19.991  0.1104E-03  0.1329E-08  0.1086E-12  0.9007E-08  0.0000E+00  0.0000E+00  0.0000E+00  0.0000E+00  0.0000E+00
    -19.797  0.5918E+00  0.1134E-03  0.4693E-09  0.7744E-03  0.0000E+00  0.0000E+00  0.0000E+00  0.0000E+00  0.0000E+00
    -19.602  0.1806E+00  0.6460E-03  0.1093E-10  0.4506E-02  0.0000E+00  0.0000E+00  0.0000E+00  0.0000E+00  0.0000E+00
    -19.407  0.9577E-01  0.9919E-03  0.1545E-14  0.6201E-02  0.0000E+00  0.0000E+00  0.0000E+00  0.0000E+00  0.0000E+00
    -19.212  0.8384E-01  0.1447E-02  0.4068E-14  0.8741E-02  0.0000E+00  0.0000E+00  0.0000E+00  0.0000E+00  0.0000E+00
    -19.017  0.6621E-01  0.1637E-02  0.1726E-14  0.9888E-02  0.0000E+00  0.0000E+00  0.0000E+00  0.0000E+00  0.0000E+00
    -18.823  0.5481E-01  0.1725E-02  0.3259E-14  0.1096E-01  0.0000E+00  0.0000E+00  0.0000E+00  0.0000E+00  0.0000E+00
    -18.628  0.4805E-01  0.1600E-02  0.1154E-13  0.1254E-01  0.0000E+00  0.0000E+00  0.0000E+00  0.0000E+00  0.0000E+00
    -18.433  0.4795E-01  0.2133E-02  0.7126E-14  0.1571E-01  0.0000E+00  0.0000E+00  0.0000E+00  0.0000E+00  0.0000E+00
    -18.238  0.4093E-01  0.3179E-02  0.3895E-13  0.1646E-01  0.0000E+00  0.0000E+00  0.0000E+00  0.0000E+00  0.0000E+00
    -18.043  0.3246E-01  0.3623E-02  0.2457E-13  0.1532E-01  0.0000E+00  0.0000E+00  0.0000E+00  0.0000E+00  0.0000E+00
    -17.849  0.3317E-01  0.3056E-02  0.2676E-13  0.2094E-01  0.0000E+00  0.0000E+00  0.0000E+00  0.0000E+00  0.0000E+00
    -17.654  0.2669E-01  0.3048E-02  0.1469E-13  0.2060E-01  0.0000E+00  0.0000E+00  0.0000E+00  0.0000E+00  0.0000E+00
    -17.459  0.1998E-01  0.4778E-02  0.6280E-14  0.1727E-01  0.0000E+00  0.0000E+00  0.0000E+00  0.0000E+00  0.0000E+00
    -17.264  0.2766E-01  0.6777E-02  0.3028E-13  0.3206E-01  0.0000E+00  0.0000E+00  0.0000E+00  0.0000E+00  0.0000E+00
    -17.069  0.2247E-01  0.8222E-02  0.3832E-13  0.3676E-01  0.0000E+00  0.0000E+00  0.0000E+00  0.0000E+00  0.0000E+00
    -16.875  0.1602E-01  0.1153E-01  0.1146E-13  0.4141E-01  0.0000E+00  0.0000E+00  0.0000E+00  0.0000E+00  0.0000E+00
    -16.680  0.5460E-01  0.7551E-01  0.2362E-12  0.2313E+00  0.0000E+00  0.0000E+00  0.0000E+00  0.0000E+00  0.0000E+00
    -16.485  0.2739E-01  0.4976E-01  0.3126E-14  0.1454E+00  0.0000E+00  0.0000E+00  0.0000E+00  0.0000E+00  0.0000E+00
    -16.290  0.1515E-01  0.5823E-01  0.5032E-14  0.1373E+00  0.0000E+00  0.0000E+00  0.0000E+00  0.0000E+00  0.0000E+00
    -16.095  0.2129E-03  0.1261E-02  0.7413E-16  0.2670E-02  0.0000E+00  0.0000E+00  0.0000E+00  0.0000E+00  0.0000E+00
    -15.901  0.0000E+00  0.0000E+00  0.0000E+00  0.0000E+00  0.0000E+00  0.0000E+00  0.0000E+00  0.0000E+00  0.0000E+00
    -15.706  0.0000E+00  0.0000E+00  0.0000E+00  0.0000E+00  0.0000E+00  0.0000E+00  0.0000E+00  0.0000E+00  0.0000E+00
    -15.511  0.0000E+00  0.0000E+00  0.0000E+00  0.0000E+00  0.0000E+00  0.0000E+00  0.0000E+00  0.0000E+00  0.0000E+00
    -15.316  0.0000E+00  0.0000E+00  0.0000E+00  0.0000E+00  0.0000E+00  0.0000E+00  0.0000E+00  0.0000E+00  0.0000E+00
    -15.121  0.0000E+00  0.0000E+00  0.0000E+00  0.0000E+00  0.0000E+00  0.0000E+00  0.0000E+00  0.0000E+00  0.0000E+00
    -14.927  0.0000E+00  0.0000E+00  0.0000E+00  0.0000E+00  0.0000E+00  0.0000E+00  0.0000E+00  0.0000E+00  0.0000E+00
    -14.732  0.0000E+00  0.0000E+00  0.0000E+00  0.0000E+00  0.0000E+00  0.0000E+00  0.0000E+00  0.0000E+00  0.0000E+00
    -14.537  0.0000E+00  0.0000E+00  0.0000E+00  0.0000E+00  0.0000E+00  0.0000E+00  0.0000E+00  0.0000E+00  0.0000E+00
    -14.342  0.0000E+00  0.0000E+00  0.0000E+00  0.0000E+00  0.0000E+00  0.0000E+00  0.0000E+00  0.0000E+00  0.0000E+00
    -14.147  0.0000E+00  0.0000E+00  0.0000E+00  0.0000E+00  0.0000E+00  0.0000E+00  0.0000E+00  0.0000E+00  0.0000E+00
    -13.953  0.0000E+00  0.0000E+00  0.0000E+00  0.0000E+00  0.0000E+00  0.0000E+00  0.0000E+00  0.0000E+00  0.0000E+00
    -13.758  0.0000E+00  0.0000E+00  0.0000E+00  0.0000E+00  0.0000E+00  0.0000E+00  0.0000E+00  0.0000E+00  0.0000E+00
    -13.563  0.0000E+00  0.0000E+00  0.0000E+00  0.0000E+00  0.0000E+00  0.0000E+00  0.0000E+00  0.0000E+00  0.0000E+00
    -13.368  0.0000E+00  0.0000E+00  0.0000E+00  0.0000E+00  0.0000E+00  0.0000E+00  0.0000E+00  0.0000E+00  0.0000E+00
    -13.173  0.0000E+00  0.0000E+00  0.0000E+00  0.0000E+00  0.0000E+00  0.0000E+00  0.0000E+00  0.0000E+00  0.0000E+00
    -12.979  0.0000E+00  0.0000E+00  0.0000E+00  0.0000E+00  0.0000E+00  0.0000E+00  0.0000E+00  0.0000E+00  0.0000E+00
    -12.784  0.0000E+00  0.0000E+00  0.0000E+00  0.0000E+00  0.0000E+00  0.0000E+00  0.0000E+00  0.0000E+00  0.0000E+00
    -12.589  0.0000E+00  0.0000E+00  0.0000E+00  0.0000E+00  0.0000E+00  0.0000E+00  0.0000E+00  0.0000E+00  0.0000E+00
    -12.394  0.0000E+00  0.0000E+00  0.0000E+00  0.0000E+00  0.0000E+00  0.0000E+00  0.0000E+00  0.0000E+00  0.0000E+00
    -12.199  0.0000E+00  0.0000E+00  0.0000E+00  0.0000E+00  0.0000E+00  0.0000E+00  0.0000E+00  0.0000E+00  0.0000E+00
    -12.005  0.0000E+00  0.0000E+00  0.0000E+00  0.0000E+00  0.0000E+00  0.0000E+00  0.0000E+00  0.0000E+00  0.0000E+00
    -11.810  0.0000E+00  0.0000E+00  0.0000E+00  0.0000E+00  0.0000E+00  0.0000E+00  0.0000E+00  0.0000E+00  0.0000E+00
    -11.615  0.0000E+00  0.0000E+00  0.0000E+00  0.0000E+00  0.0000E+00  0.0000E+00  0.0000E+00  0.0000E+00  0.0000E+00
    -11.420  0.0000E+00  0.0000E+00  0.0000E+00  0.0000E+00  0.0000E+00  0.0000E+00  0.0000E+00  0.0000E+00  0.0000E+00
    -11.225  0.5356E-04  0.2582E-05  0.4403E-16  0.7603E-05  0.0000E+00  0.0000E+00  0.0000E+00  0.0000E+00  0.0000E+00
    -11.031  0.3164E+00  0.1775E-01  0.1244E-12  0.4567E-01  0.0000E+00  0.0000E+00  0.0000E+00  0.0000E+00  0.0000E+00
    -10.836  0.2491E+00  0.2694E-01  0.4562E-14  0.3967E-01  0.0000E+00  0.0000E+00  0.0000E+00  0.0000E+00  0.0000E+00
    -10.641  0.1279E+00  0.2957E-01  0.2679E-15  0.2318E-01  0.0000E+00  0.0000E+00  0.0000E+00  0.0000E+00  0.0000E+00
    -10.446  0.1282E+00  0.4076E-01  0.1172E-14  0.2875E-01  0.0000E+00  0.0000E+00  0.0000E+00  0.0000E+00  0.0000E+00
    -10.251  0.8223E-01  0.6469E-01  0.2071E-14  0.2684E-01  0.0000E+00  0.0000E+00  0.0000E+00  0.0000E+00  0.0000E+00
    -10.057  0.1258E+00  0.1252E+00  0.1648E-14  0.4832E-01  0.0000E+00  0.0000E+00  0.0000E+00  0.0000E+00  0.0000E+00
     -9.862  0.2513E-01  0.2701E-01  0.3157E-15  0.1276E-02  0.0000E+00  0.0000E+00  0.0000E+00  0.0000E+00  0.0000E+00
     -9.667  0.4722E-01  0.1754E-01  0.4009E-15  0.1367E-01  0.0000E+00  0.0000E+00  0.0000E+00  0.0000E+00  0.0000E+00
     -9.472  0.2465E-01  0.2590E-01  0.2137E-14  0.2878E-04  0.0000E+00  0.0000E+00  0.0000E+00  0.0000E+00  0.0000E+00
     -9.277  0.2564E-01  0.1147E-01  0.5597E-15  0.8752E-02  0.0000E+00  0.0000E+00  0.0000E+00  0.0000E+00  0.0000E+00
     -9.083  0.6696E-01  0.2366E-01  0.1065E-14  0.1531E-01  0.0000E+00  0.0000E+00  0.0000E+00  0.0000E+00  0.0000E+00
     -8.888  0.1332E+00  0.2725E-01  0.7554E-15  0.3084E-01  0.0000E+00  0.0000E+00  0.0000E+00  0.0000E+00  0.0000E+00
     -8.693  0.1329E+00  0.4429E-01  0.2070E-14  0.4853E-01  0.0000E+00  0.0000E+00  0.0000E+00  0.0000E+00  0.0000E+00
     -8.498  0.5232E-01  0.2178E-01  0.1390E-14  0.2207E-01  0.0000E+00  0.0000E+00  0.0000E+00  0.0000E+00  0.0000E+00
     -8.303  0.6699E-01  0.4506E-01  0.7158E-14  0.2567E-01  0.0000E+00  0.0000E+00  0.0000E+00  0.0000E+00  0.0000E+00
     -8.109  0.7612E-01  0.3777E-01  0.1445E-14  0.5071E-01  0.0000E+00  0.0000E+00  0.0000E+00  0.0000E+00  0.0000E+00
     -7.914  0.4253E-01  0.4464E-01  0.1217E-13  0.1983E-01  0.0000E+00  0.0000E+00  0.0000E+00  0.0000E+00  0.0000E+00
     -7.719  0.4256E-01  0.3917E-01  0.3513E-13  0.3502E-01  0.0000E+00  0.0000E+00  0.0000E+00  0.0000E+00  0.0000E+00
     -7.524  0.4011E-01  0.3745E-01  0.1083E-01  0.3530E-01  0.0000E+00  0.0000E+00  0.0000E+00  0.0000E+00  0.0000E+00
     -7.329  0.4735E-01  0.6143E-01  0.4485E+00  0.4337E-01  0.0000E+00  0.0000E+00  0.0000E+00  0.0000E+00  0.0000E+00
     -7.135  0.1309E-01  0.3451E-01  0.9515E-01  0.1644E-01  0.0000E+00  0.0000E+00  0.0000E+00  0.0000E+00  0.0000E+00
     -6.940  0.5356E-01  0.7179E-01  0.6388E-01  0.6684E-01  0.0000E+00  0.0000E+00  0.0000E+00  0.0000E+00  0.0000E+00
     -6.745  0.1272E-01  0.5150E-01  0.5243E-01  0.2354E-01  0.0000E+00  0.0000E+00  0.0000E+00  0.0000E+00  0.0000E+00
     -6.550  0.1646E-01  0.8134E-01  0.3904E-01  0.4354E-01  0.0000E+00  0.0000E+00  0.0000E+00  0.0000E+00  0.0000E+00
     -6.355  0.3381E-01  0.2235E+00  0.3065E-01  0.1104E+00  0.0000E+00  0.0000E+00  0.0000E+00  0.0000E+00  0.0000E+00
     -6.161  0.6921E-02  0.1555E+00  0.4179E-01  0.6411E-01  0.0000E+00  0.0000E+00  0.0000E+00  0.0000E+00  0.0000E+00
     -5.966  0.6134E-02  0.7484E-01  0.3467E-01  0.3583E-01  0.0000E+00  0.0000E+00  0.0000E+00  0.0000E+00  0.0000E+00
     -5.771  0.2483E-01  0.7439E-01  0.2347E-01  0.6588E-01  0.0000E+00  0.0000E+00  0.0000E+00  0.0000E+00  0.0000E+00
     -5.576  0.2838E-02  0.5330E-01  0.3914E-01  0.2489E-01  0.0000E+00  0.0000E+00  0.0000E+00  0.0000E+00  0.0000E+00
     -5.381  0.1662E-01  0.6260E-01  0.2302E-01  0.5846E-01  0.0000E+00  0.0000E+00  0.0000E+00  0.0000E+00  0.0000E+00
     -5.187  0.7353E-02  0.6383E-01  0.2636E-01  0.3976E-01  0.0000E+00  0.0000E+00  0.0000E+00  0.0000E+00  0.0000E+00
     -4.992  0.1225E-02  0.4093E-01  0.2270E-01  0.1755E-01  0.0000E+00  0.0000E+00  0.0000E+00  0.0000E+00  0.0000E+00
     -4.797  0.1555E-01  0.8056E-01  0.2218E-01  0.7857E-01  0.0000E+00  0.0000E+00  0.0000E+00  0.0000E+00  0.0000E+00
     -4.602  0.2873E-03  0.3605E-01  0.2133E-01  0.1263E-01  0.0000E+00  0.0000E+00  0.0000E+00  0.0000E+00  0.0000E+00
     -4.407  0.1051E-01  0.6371E-01  0.2056E-01  0.7570E-01  0.0000E+00  0.0000E+00  0.0000E+00  0.0000E+00  0.0000E+00
     -4.213  0.8595E-03  0.6023E-01  0.1936E-01  0.1994E-01  0.0000E+00  0.0000E+00  0.0000E+00  0.0000E+00  0.0000E+00
     -4.018  0.6005E-02  0.7689E-01  0.2090E-01  0.7914E-01  0.0000E+00  0.0000E+00  0.0000E+00  0.0000E+00  0.0000E+00
     -3.823  0.2053E-02  0.8755E-01  0.1508E-01  0.6603E-01  0.0000E+00  0.0000E+00  0.0000E+00  0.0000E+00  0.0000E+00
     -3.628  0.1439E-02  0.2594E+00  0.2813E-01  0.2227E+00  0.0000E+00  0.0000E+00  0.0000E+00  0.0000E+00  0.0000E+00
     -3.433  0.1035E-03  0.3896E+00  0.5404E-02  0.3717E+00  0.0000E+00  0.0000E+00  0.0000E+00  0.0000E+00  0.0000E+00
     -3.239  0.9119E-14  0.2897E-06  0.2790E-01  0.2919E-06  0.0000E+00  0.0000E+00  0.0000E+00  0.0000E+00  0.0000E+00
     -3.044  0.2685E-13  0.1316E-13  0.9376E-01  0.2976E-13  0.0000E+00  0.0000E+00  0.0000E+00  0.0000E+00  0.0000E+00
     -2.849  0.4423E-14  0.1568E-14  0.5188E-01  0.4196E-15  0.0000E+00  0.0000E+00  0.0000E+00  0.0000E+00  0.0000E+00
     -2.654  0.2670E-14  0.1273E-14  0.2974E-01  0.1792E-14  0.0000E+00  0.0000E+00  0.0000E+00  0.0000E+00  0.0000E+00
     -2.459  0.1351E-13  0.2869E-14  0.2217E-01  0.4815E-14  0.0000E+00  0.0000E+00  0.0000E+00  0.0000E+00  0.0000E+00
     -2.265  0.3437E-14  0.1120E-14  0.5394E-02  0.2292E-14  0.0000E+00  0.0000E+00  0.0000E+00  0.0000E+00  0.0000E+00
     -2.070  0.6230E-21  0.3256E-21  0.1321E-08  0.5735E-21  0.0000E+00  0.0000E+00  0.0000E+00  0.0000E+00  0.0000E+00
     -1.875  0.0000E+00  0.0000E+00  0.0000E+00  0.0000E+00  0.0000E+00  0.0000E+00  0.0000E+00  0.0000E+00  0.0000E+00
     -1.680  0.0000E+00  0.0000E+00  0.0000E+00  0.0000E+00  0.0000E+00  0.0000E+00  0.0000E+00  0.0000E+00  0.0000E+00
     -1.486  0.0000E+00  0.0000E+00  0.0000E+00  0.0000E+00  0.0000E+00  0.0000E+00  0.0000E+00  0.0000E+00  0.0000E+00
     -1.291  0.0000E+00  0.0000E+00  0.0000E+00  0.0000E+00  0.0000E+00  0.0000E+00  0.0000E+00  0.0000E+00  0.0000E+00
     -1.096  0.0000E+00  0.0000E+00  0.0000E+00  0.0000E+00  0.0000E+00  0.0000E+00  0.0000E+00  0.0000E+00  0.0000E+00
     -0.901  0.0000E+00  0.0000E+00  0.0000E+00  0.0000E+00  0.0000E+00  0.0000E+00  0.0000E+00  0.0000E+00  0.0000E+00
     -0.706  0.0000E+00  0.0000E+00  0.0000E+00  0.0000E+00  0.0000E+00  0.0000E+00  0.0000E+00  0.0000E+00  0.0000E+00
     -0.512  0.0000E+00  0.0000E+00  0.0000E+00  0.0000E+00  0.0000E+00  0.0000E+00  0.0000E+00  0.0000E+00  0.0000E+00
     -0.317  0.0000E+00  0.0000E+00  0.0000E+00  0.0000E+00  0.0000E+00  0.0000E+00  0.0000E+00  0.0000E+00  0.0000E+00
     -0.122  0.0000E+00  0.0000E+00  0.0000E+00  0.0000E+00  0.0000E+00  0.0000E+00  0.0000E+00  0.0000E+00  0.0000E+00
      0.073  0.0000E+00  0.0000E+00  0.0000E+00  0.0000E+00  0.0000E+00  0.0000E+00  0.0000E+00  0.0000E+00  0.0000E+00
      0.268  0.0000E+00  0.0000E+00  0.0000E+00  0.0000E+00  0.0000E+00  0.0000E+00  0.0000E+00  0.0000E+00  0.0000E+00
      0.462  0.0000E+00  0.0000E+00  0.0000E+00  0.0000E+00  0.0000E+00  0.0000E+00  0.0000E+00  0.0000E+00  0.0000E+00
      0.657  0.0000E+00  0.0000E+00  0.0000E+00  0.0000E+00  0.0000E+00  0.0000E+00  0.0000E+00  0.0000E+00  0.0000E+00
      0.852  0.0000E+00  0.0000E+00  0.0000E+00  0.0000E+00  0.0000E+00  0.0000E+00  0.0000E+00  0.0000E+00  0.0000E+00
      1.047  0.0000E+00  0.0000E+00  0.0000E+00  0.0000E+00  0.0000E+00  0.0000E+00  0.0000E+00  0.0000E+00  0.0000E+00
      1.242  0.0000E+00  0.0000E+00  0.0000E+00  0.0000E+00  0.0000E+00  0.0000E+00  0.0000E+00  0.0000E+00  0.0000E+00
      1.436  0.0000E+00  0.0000E+00  0.0000E+00  0.0000E+00  0.0000E+00  0.0000E+00  0.0000E+00  0.0000E+00  0.0000E+00
      1.631  0.0000E+00  0.0000E+00  0.0000E+00  0.0000E+00  0.0000E+00  0.0000E+00  0.0000E+00  0.0000E+00  0.0000E+00
      1.826  0.5518E-15  0.3034E-18  0.2314E-16  0.1596E-17  0.0000E+00  0.0000E+00  0.0000E+00  0.0000E+00  0.0000E+00
      2.021  0.3853E-05  0.4575E-07  0.7171E-06  0.2679E-06  0.0000E+00  0.0000E+00  0.0000E+00  0.0000E+00  0.0000E+00
      2.216  0.6022E-04  0.6551E-05  0.9505E-04  0.2798E-04  0.0000E+00  0.0000E+00  0.0000E+00  0.0000E+00  0.0000E+00
      2.410  0.3385E-04  0.1920E-04  0.5629E-03  0.4865E-04  0.0000E+00  0.0000E+00  0.0000E+00  0.0000E+00  0.0000E+00
      2.605  0.3717E-04  0.2711E-04  0.9411E+00  0.4879E-04  0.0000E+00  0.0000E+00  0.0000E+00  0.0000E+00  0.0000E+00
      2.800  0.4346E-04  0.3906E-04  0.6236E+00  0.4417E-04  0.0000E+00  0.0000E+00  0.0000E+00  0.0000E+00  0.0000E+00
      2.995  0.4683E-04  0.6266E-04  0.6201E-01  0.6303E-04  0.0000E+00  0.0000E+00  0.0000E+00  0.0000E+00  0.0000E+00
      3.190  0.3428E-03  0.3517E-04  0.8457E-01  0.8277E-04  0.0000E+00  0.0000E+00  0.0000E+00  0.0000E+00  0.0000E+00
      3.384  0.2817E-03  0.8783E-04  0.6094E-01  0.1037E-03  0.0000E+00  0.0000E+00  0.0000E+00  0.0000E+00  0.0000E+00
      3.579  0.1728E-03  0.1357E-03  0.3066E-01  0.2058E-03  0.0000E+00  0.0000E+00  0.0000E+00  0.0000E+00  0.0000E+00
      3.774  0.1345E-03  0.1341E-03  0.6915E-01  0.1378E-03  0.0000E+00  0.0000E+00  0.0000E+00  0.0000E+00  0.0000E+00
      3.969  0.1645E-03  0.1538E-03  0.3023E-01  0.2465E-03  0.0000E+00  0.0000E+00  0.0000E+00  0.0000E+00  0.0000E+00
      4.164  0.1340E-03  0.1633E-03  0.4722E-01  0.8149E-04  0.0000E+00  0.0000E+00  0.0000E+00  0.0000E+00  0.0000E+00
      4.358  0.2322E-03  0.2647E-03  0.4888E-01  0.3639E-03  0.0000E+00  0.0000E+00  0.0000E+00  0.0000E+00  0.0000E+00
      4.553  0.1879E-03  0.1868E-03  0.1034E-01  0.2447E-03  0.0000E+00  0.0000E+00  0.0000E+00  0.0000E+00  0.0000E+00
      4.748  0.2848E-03  0.2858E-03  0.7324E-01  0.3022E-03  0.0000E+00  0.0000E+00  0.0000E+00  0.0000E+00  0.0000E+00
      4.943  0.2698E-03  0.2368E-03  0.1336E-01  0.3954E-03  0.0000E+00  0.0000E+00  0.0000E+00  0.0000E+00  0.0000E+00
      5.138  0.3171E-03  0.3238E-03  0.4968E-01  0.2803E-03  0.0000E+00  0.0000E+00  0.0000E+00  0.0000E+00  0.0000E+00
      5.332  0.3834E-03  0.2141E-03  0.2083E-01  0.6388E-03  0.0000E+00  0.0000E+00  0.0000E+00  0.0000E+00  0.0000E+00
      5.527  0.3866E-04  0.3769E-03  0.8542E-02  0.1963E-04  0.0000E+00  0.0000E+00  0.0000E+00  0.0000E+00  0.0000E+00
      5.722  0.1175E-02  0.4327E-03  0.2166E-01  0.1280E-02  0.0000E+00  0.0000E+00  0.0000E+00  0.0000E+00  0.0000E+00
      5.917  0.2290E-04  0.1282E-03  0.2027E-01  0.5262E-05  0.0000E+00  0.0000E+00  0.0000E+00  0.0000E+00  0.0000E+00
      6.112  0.1922E-02  0.7914E-03  0.1618E-01  0.1510E-02  0.0000E+00  0.0000E+00  0.0000E+00  0.0000E+00  0.0000E+00
      6.306  0.6649E-03  0.1292E-03  0.4748E-04  0.3873E-03  0.0000E+00  0.0000E+00  0.0000E+00  0.0000E+00  0.0000E+00
      6.501  0.2485E-02  0.8342E-03  0.5680E-09  0.1589E-02  0.0000E+00  0.0000E+00  0.0000E+00  0.0000E+00  0.0000E+00
      6.696  0.3282E-02  0.5888E-03  0.1460E-01  0.1341E-02  0.0000E+00  0.0000E+00  0.0000E+00  0.0000E+00  0.0000E+00
      6.891  0.1520E-01  0.7589E-03  0.4590E-01  0.2282E-02  0.0000E+00  0.0000E+00  0.0000E+00  0.0000E+00  0.0000E+00
      7.086  0.2196E-01  0.2083E-02  0.4868E-01  0.5067E-02  0.0000E+00  0.0000E+00  0.0000E+00  0.0000E+00  0.0000E+00
      7.280  0.2737E-01  0.2679E-02  0.1665E-01  0.6968E-02  0.0000E+00  0.0000E+00  0.0000E+00  0.0000E+00  0.0000E+00
      7.475  0.1509E+00  0.1224E-01  0.3359E-01  0.3462E-01  0.0000E+00  0.0000E+00  0.0000E+00  0.0000E+00  0.0000E+00
      7.670  0.5758E-01  0.6460E-02  0.1316E-01  0.1423E-01  0.0000E+00  0.0000E+00  0.0000E+00  0.0000E+00  0.0000E+00
      7.865  0.4087E-01  0.6492E-02  0.3423E-01  0.1407E-01  0.0000E+00  0.0000E+00  0.0000E+00  0.0000E+00  0.0000E+00