 vasp.5.4.4.18Apr17-6-g9f103f2a35 (build May 10 2019 17:57:18) complex          
  
 executed on             LinuxIFC date 2024.07.16  00:27:08
 running on   20 total cores
 distrk:  each k-point on   20 cores,    1 groups
 distr:  one band on NCORES_PER_BAND=   1 cores,   20 groups


--------------------------------------------------------------------------------------------------------


 INCAR:
 POTCAR:    PAW_PBE B 06Sep2000                   
 POTCAR:    PAW_PBE N 08Apr2002                   

 ----------------------------------------------------------------------------- 
|                                                                             |
|           W    W    AA    RRRRR   N    N  II  N    N   GGGG   !!!           |
|           W    W   A  A   R    R  NN   N  II  NN   N  G    G  !!!           |
|           W    W  A    A  R    R  N N  N  II  N N  N  G       !!!           |
|           W WW W  AAAAAA  RRRRR   N  N N  II  N  N N  G  GGG   !            |
|           WW  WW  A    A  R   R   N   NN  II  N   NN  G    G                |
|           W    W  A    A  R    R  N    N  II  N    N   GGGG   !!!           |
|                                                                             |
|      For optimal performance we recommend to set                            |
|        NCORE= 4 - approx SQRT( number of cores)                             |
|      NCORE specifies how many cores store one orbital (NPAR=cpu/NCORE).     |
|      This setting can  greatly improve the performance of VASP for DFT.     |
|      The default,   NCORE=1            might be grossly inefficient         |
|      on modern multi-core architectures or massively parallel machines.     |
|      Do your own testing !!!!                                               |
|      Unfortunately you need to use the default for GW and RPA calculations. |
|      (for HF NCORE is supported but not extensively tested yet)             |
|                                                                             |
 ----------------------------------------------------------------------------- 

 POTCAR:    PAW_PBE B 06Sep2000                   
   SHA256 =  a32ced30f5ae56fd4d10b4325ff17eb3e4e38ee0f4288bc219fb012fddfa6e97 B/
   COPYR  = (c) Copyright 06Sep2000 Georg Kresse                                
   COPYR  = This file is part of the software VASP. Any use, copying, and all ot
   COPYR  = If you do not have a valid VASP license, you may not use, copy or di
   VRHFIN =B: s2p1                                                              
   LEXCH  = PE                                                                  
   EATOM  =    71.1703 eV,    5.2309 Ry                                         
                                                                                
   TITEL  = PAW_PBE B 06Sep2000                                                 
   LULTRA =        F    use ultrasoft PP ?                                      
   IUNSCR =        1    unscreen: 0-lin 1-nonlin 2-no                           
   RPACOR =    1.200    partial core radius                                     
   POMASS =   10.811; ZVAL   =    3.000    mass and valenz                      
   RCORE  =    1.700    outmost cutoff radius                                   
   RWIGS  =    1.710; RWIGS  =    0.905    wigner-seitz radius (au A)           
   ENMAX  =  318.614; ENMIN  =  238.960 eV                                      
   ICORE  =        2    local potential                                         
   LCOR   =        T    correct aug charges                                     
   LPAW   =        T    paw PP                                                  
   EAUG   =  535.514                                                            
   DEXC   =    0.000                                                            
   RMAX   =    1.732    core radius for proj-oper                               
   RAUG   =    1.300    factor for augmentation sphere                          
   RDEP   =    1.757    radius for radial grids                                 
   RDEPT  =    1.436    core radius for aug-charge                              
                                                                                
   Atomic configuration                                                         
    4 entries                                                                   
     n  l   j            E        occ.                                          
     1  0  0.50      -180.5896   2.0000                                         
     2  0  0.50        -9.4431   2.0000                                         
     2  1  0.50        -3.6068   1.0000                                         
     3  2  1.50        -4.0817   0.0000                                         
   Description                                                                  
     l       E           TYP  RCUT    TYP  RCUT                                 
     0     -9.4430752     23  1.500                                             
     0      0.8675899     23  1.500                                             
     1     -3.6067955     23  1.700                                             
     1      6.1086146     23  1.700                                             
     2     -4.0817478      7  1.700                                             
  local pseudopotential read in
  partial core-charges read in
  partial kinetic energy density read in
  atomic valenz-charges read in
  non local Contribution for L=           0  read in
    real space projection operators read in
  non local Contribution for L=           0  read in
    real space projection operators read in
  non local Contribution for L=           1  read in
    real space projection operators read in
  non local Contribution for L=           1  read in
    real space projection operators read in
    PAW grid and wavefunctions read in
 
   number of l-projection  operators is LMAX  =           4
   number of lm-projection operators is LMMAX =           8
 
 POTCAR:    PAW_PBE N 08Apr2002                   
   SHA256 =  e053789ff3a61a86a1b75d8a110fcc91f86041011e7b0817c7c99e4e8a6349d7 N/
   COPYR  = (c) Copyright 08Apr2002 Georg Kresse                                
   COPYR  = This file is part of the software VASP. Any use, copying, and all ot
   COPYR  = If you do not have a valid VASP license, you may not use, copy or di
   VRHFIN =N: s2p3                                                              
   LEXCH  = PE                                                                  
   EATOM  =   264.5486 eV,   19.4438 Ry                                         
                                                                                
   TITEL  = PAW_PBE N 08Apr2002                                                 
   LULTRA =        F    use ultrasoft PP ?                                      
   IUNSCR =        1    unscreen: 0-lin 1-nonlin 2-no                           
   RPACOR =    1.200    partial core radius                                     
   POMASS =   14.001; ZVAL   =    5.000    mass and valenz                      
   RCORE  =    1.500    outmost cutoff radius                                   
   RWIGS  =    1.400; RWIGS  =    0.741    wigner-seitz radius (au A)           
   ENMAX  =  400.000; ENMIN  =  300.000 eV                                      
   ICORE  =        2    local potential                                         
   LCOR   =        T    correct aug charges                                     
   LPAW   =        T    paw PP                                                  
   EAUG   =  627.112                                                            
   DEXC   =    0.000                                                            
   RMAX   =    1.529    core radius for proj-oper                               
   RAUG   =    1.300    factor for augmentation sphere                          
   RDEP   =    1.514    radius for radial grids                                 
   RDEPT  =    1.338    core radius for aug-charge                              
                                                                                
   Atomic configuration                                                         
    4 entries                                                                   
     n  l   j            E        occ.                                          
     1  0  0.50      -384.7179   2.0000                                         
     2  0  0.50       -18.5828   2.0000                                         
     2  1  0.50        -7.0898   3.0000                                         
     3  2  1.50        -6.8029   0.0000                                         
   Description                                                                  
     l       E           TYP  RCUT    TYP  RCUT                                 
     0    -18.5828119     23  1.200                                             
     0    -13.5018863     23  1.200                                             
     1     -7.0897853     23  1.500                                             
     1      9.5240782     23  1.500                                             
     2     -6.8029130      7  1.500                                             
  local pseudopotential read in
  partial core-charges read in
  partial kinetic energy density read in
  atomic valenz-charges read in
  non local Contribution for L=           0  read in
    real space projection operators read in
  non local Contribution for L=           0  read in
    real space projection operators read in
  non local Contribution for L=           1  read in
    real space projection operators read in
  non local Contribution for L=           1  read in
    real space projection operators read in
    PAW grid and wavefunctions read in
 
   number of l-projection  operators is LMAX  =           4
   number of lm-projection operators is LMMAX =           8
 
  PAW_PBE B 06Sep2000                   :
 energy of atom  1       EATOM=  -71.1703
 kinetic energy error for atom=    0.0012 (will be added to EATOM!!)
  PAW_PBE N 08Apr2002                   :
 energy of atom  2       EATOM= -264.5486
 kinetic energy error for atom=    0.0138 (will be added to EATOM!!)
 
 
 POSCAR: B2 N2                                   
  positions in direct lattice
  velocities in cartesian coordinates
 exchange correlation table for  LEXCH =        8
   RHO(1)=    0.500       N(1)  =     2000
   RHO(2)=  100.500       N(2)  =     4000
 


--------------------------------------------------------------------------------------------------------


 ion  position               nearest neighbor table
   1  0.000  0.000  0.000-   2 1.45   2 1.45   2 1.45
   2  0.333  0.667  0.000-   1 1.45   1 1.45   1 1.45
 
  LATTYP: Found a hexagonal cell.
 ALAT       =     2.5124746362
 C/A-ratio  =     2.9956358826
  
  Lattice vectors:
  
 A1 = (   1.2562373181,  -2.1758668613,   0.0000000000)
 A2 = (   1.2562373181,   2.1758668613,   0.0000000000)
 A3 = (   0.0000000000,   0.0000000000,   7.5264591742)


Analysis of symmetry for initial positions (statically):
=====================================================================
 Subroutine PRICEL returns:
 Original cell was already a primitive cell.
 

 Routine SETGRP: Setting up the symmetry group for a 
 hexagonal supercell.


 Subroutine GETGRP returns: Found 12 space group operations
 (whereof 12 operations were pure point group operations)
 out of a pool of 24 trial point group operations.


The static configuration has the point symmetry D_3h.


Analysis of symmetry for dynamics (positions and initial velocities):
=====================================================================
 Subroutine PRICEL returns:
 Original cell was already a primitive cell.
 

 Routine SETGRP: Setting up the symmetry group for a 
 hexagonal supercell.


 Subroutine GETGRP returns: Found 12 space group operations
 (whereof 12 operations were pure point group operations)
 out of a pool of 24 trial point group operations.


The dynamic configuration has the point symmetry D_3h.


 Subroutine INISYM returns: Found 12 space group operations
 (whereof 12 operations are pure point group operations),
 and found     1 'primitive' translations

 
 
 KPOINTS: BANDS BN                                
  interpolating k-points between supplied coordinates
  k-points in reciprocal lattice
Space group operators:
 irot       det(A)        alpha          n_x          n_y          n_z        tau_x        tau_y        tau_z
    1     1.000000     0.000000     1.000000     0.000000     0.000000     0.000000     0.000000     0.000000
    2    -1.000000    60.000000     0.000000     0.000000    -1.000000     0.000000     0.000000     0.000000
    3     1.000000   120.000000     0.000000     0.000000    -1.000000     0.000000     0.000000     0.000000
    4    -1.000000   180.000000     0.000000     0.000000     1.000000     0.000000     0.000000     0.000000
    5     1.000000   120.000000     0.000000     0.000000     1.000000     0.000000     0.000000     0.000000
    6    -1.000000    60.000000     0.000000     0.000000     1.000000     0.000000     0.000000     0.000000
    7    -1.000000   180.000000     0.500000    -0.866025     0.000000     0.000000     0.000000     0.000000
    8     1.000000   180.000000     0.000000     1.000000     0.000000     0.000000     0.000000     0.000000
    9    -1.000000   180.000000    -0.500000    -0.866025     0.000000     0.000000     0.000000     0.000000
   10     1.000000   180.000000     0.866025     0.500000     0.000000     0.000000     0.000000     0.000000
   11    -1.000000   180.000000     1.000000     0.000000     0.000000     0.000000     0.000000     0.000000
   12     1.000000   180.000000     0.866025    -0.500000     0.000000     0.000000     0.000000     0.000000


--------------------------------------------------------------------------------------------------------




 Dimension of arrays:
   k-points           NKPTS =    140   k-points in BZ     NKDIM =    140   number of bands    NBANDS=     20
   number of dos      NEDOS =    301   number of ions     NIONS =      2
   non local maximal  LDIM  =      4   non local SUM 2l+1 LMDIM =      8
   total plane-waves  NPLWV =   8232
   max r-space proj   IRMAX =      1   max aug-charges    IRDMAX=  25156
   dimension x,y,z NGX =    14 NGY =   14 NGZ =   42
   dimension x,y,z NGXF=    28 NGYF=   28 NGZF=   84
   support grid    NGXF=    56 NGYF=   56 NGZF=  168
   ions per type =               1   1
   NGX,Y,Z   is equivalent  to a cutoff of   9.26,  9.26,  9.28 a.u.
   NGXF,Y,Z  is equivalent  to a cutoff of  18.53, 18.53, 18.55 a.u.

 SYSTEM =  BiFeO3                                  
 POSCAR =  B2 N2                                   

 Startparameter for this run:
   NWRITE =      2    write-flag & timer
   PREC   = normal    normal or accurate (medium, high low for compatibility)
   ISTART =      1    job   : 0-new  1-cont  2-samecut
   ICHARG =     11    charge: 1-file 2-atom 10-const
   ISPIN  =      1    spin polarized calculation?
   LNONCOLLINEAR =      F non collinear calculations
   LSORBIT =      F    spin-orbit coupling
   INIWAV =      1    electr: 0-lowe 1-rand  2-diag
   LASPH  =      F    aspherical Exc in radial PAW
   METAGGA=      F    non-selfconsistent MetaGGA calc.

 Electronic Relaxation 1
   ENCUT  =  500.0 eV  36.75 Ry    6.06 a.u.   4.58  4.58 13.72*2*pi/ulx,y,z
   ENINI  =  500.0     initial cutoff
   ENAUG  =  627.1 eV  augmentation charge cutoff
   NELM   =     60;   NELMIN=  2; NELMDL=  0     # of ELM steps 
   EDIFF  = 0.1E-03   stopping-criterion for ELM
   LREAL  =      F    real-space projection
   NLSPLINE    = F    spline interpolate recip. space projectors
   LCOMPAT=      F    compatible to vasp.4.4
   GGA_COMPAT  = T    GGA compatible to vasp.4.4-vasp.4.6
   LMAXPAW     = -100 max onsite density
   LMAXMIX     =    2 max onsite mixed and CHGCAR
   VOSKOWN=      0    Vosko Wilk Nusair interpolation
   ROPT   =    0.00000   0.00000
 Ionic relaxation
   EDIFFG = 0.1E-02   stopping-criterion for IOM
   NSW    =      0    number of steps for IOM
   NBLOCK =      1;   KBLOCK =      1    inner block; outer block 
   IBRION =     -1    ionic relax: 0-MD 1-quasi-New 2-CG
   NFREE  =      0    steps in history (QN), initial steepest desc. (CG)
   ISIF   =      2    stress and relaxation
   IWAVPR =     10    prediction:  0-non 1-charg 2-wave 3-comb
   ISYM   =      2    0-nonsym 1-usesym 2-fastsym
   LCORR  =      T    Harris-Foulkes like correction to forces

   POTIM  = 0.5000    time-step for ionic-motion
   TEIN   =    0.0    initial temperature
   TEBEG  =    0.0;   TEEND  =   0.0 temperature during run
   SMASS  =  -3.00    Nose mass-parameter (am)
   estimated Nose-frequenzy (Omega)   =  0.10E-29 period in steps =****** mass=  -0.144E-27a.u.
   SCALEE = 1.0000    scale energy and forces
   NPACO  =    256;   APACO  = 16.0  distance and # of slots for P.C.
   PSTRESS=    0.0 pullay stress

  Mass of Ions in am
   POMASS =  10.81 14.00
  Ionic Valenz
   ZVAL   =   3.00  5.00
  Atomic Wigner-Seitz radii
   RWIGS  =  -1.00 -1.00
  virtual crystal weights 
   VCA    =   1.00  1.00
   NELECT =       8.0000    total number of electrons
   NUPDOWN=      -1.0000    fix difference up-down

 DOS related values:
   EMIN   =  10.00;   EMAX   =-10.00  energy-range for DOS
   EFERMI =   0.00
   ISMEAR =     0;   SIGMA  =   0.05  broadening in eV -4-tet -1-fermi 0-gaus

 Electronic relaxation 2 (details)
   IALGO  =     38    algorithm
   LDIAG  =      T    sub-space diagonalisation (order eigenvalues)
   LSUBROT=      F    optimize rotation matrix (better conditioning)
   TURBO    =      0    0=normal 1=particle mesh
   IRESTART =      0    0=no restart 2=restart with 2 vectors
   NREBOOT  =      0    no. of reboots
   NMIN     =      0    reboot dimension
   EREF     =   0.00    reference energy to select bands
   IMIX   =      4    mixing-type and parameters
     AMIX     =   0.40;   BMIX     =  1.00
     AMIX_MAG =   1.60;   BMIX_MAG =  1.00
     AMIN     =   0.10
     WC   =   100.;   INIMIX=   1;  MIXPRE=   1;  MAXMIX= -45

 Intra band minimization:
   WEIMIN = 0.0000     energy-eigenvalue tresh-hold
   EBREAK =  0.13E-05  absolut break condition
   DEPER  =   0.30     relativ break condition  

   TIME   =   0.40     timestep for ELM

  volume/ion in A,a.u.               =      20.57       138.83
  Fermi-wavevector in a.u.,A,eV,Ry     =   0.948411  1.792237 12.238215  0.899483
  Thomas-Fermi vector in A             =   2.076597
 
 Write flags
   LWAVE        =      T    write WAVECAR
   LDOWNSAMPLE  =      F    k-point downsampling of WAVECAR
   LCHARG       =      T    write CHGCAR
   LVTOT        =      F    write LOCPOT, total local potential
   LVHAR        =      F    write LOCPOT, Hartree potential only
   LELF         =      F    write electronic localiz. function (ELF)
   LORBIT       =     11    0 simple, 1 ext, 2 COOP (PROOUT), +10 PAW based schemes


 Dipole corrections
   LMONO  =      F    monopole corrections only (constant potential shift)
   LDIPOL =      F    correct potential (dipole corrections)
   IDIPOL =      0    1-x, 2-y, 3-z, 4-all directions 
   EPSILON=  1.0000000 bulk dielectric constant

 Exchange correlation treatment:
   GGA     =    --    GGA type
   LEXCH   =     8    internal setting for exchange type
   VOSKOWN=      0    Vosko Wilk Nusair interpolation
   LHFCALC =     F    Hartree Fock is set to
   LHFONE  =     F    Hartree Fock one center treatment
   AEXX    =    0.0000 exact exchange contribution

 Linear response parameters
   LEPSILON=     F    determine dielectric tensor
   LRPA    =     F    only Hartree local field effects (RPA)
   LNABLA  =     F    use nabla operator in PAW spheres
   LVEL    =     F    velocity operator in full k-point grid
   LINTERFAST=   F  fast interpolation
   KINTER  =     0    interpolate to denser k-point grid
   CSHIFT  =0.1000    complex shift for real part using Kramers Kronig
   OMEGAMAX=  -1.0    maximum frequency
   DEG_THRESHOLD= 0.2000000E-02 threshold for treating states as degnerate
   RTIME   =   -0.100 relaxation time in fs
  (WPLASMAI=    0.000 imaginary part of plasma frequency in eV, 0.658/RTIME)
   DFIELD  = 0.0000000 0.0000000 0.0000000 field for delta impulse in time
 
 Orbital magnetization related:
   ORBITALMAG=     F  switch on orbital magnetization
   LCHIMAG   =     F  perturbation theory with respect to B field
   DQ        =  0.001000  dq finite difference perturbation B field
   LLRAUG    =     F  two centre corrections for induced B field



--------------------------------------------------------------------------------------------------------


 Static calculation
 charge density and potential remain constant during run
 non-spin polarized calculation
 Variant of blocked Davidson
 Davidson routine will perform the subspace rotation
 perform sub-space diagonalisation
    after iterative eigenvector-optimisation
 no mixing
 using additional bands           16
 reciprocal scheme for non local part
 use partial core corrections
 calculate Harris-corrections to forces 
   (improved forces if not selfconsistent)
 use gradient corrections 
 WARNING: stress and forces are not correct
  (second derivative of E(xc) not defined)
 use of overlap-Matrix (Vanderbilt PP)
 Gauss-broadening in eV      SIGMA  =   0.05


--------------------------------------------------------------------------------------------------------


  energy-cutoff  :      500.00
  volume of cell :       41.15
      direct lattice vectors                 reciprocal lattice vectors
     1.256237318 -2.175866861  0.000000000     0.398013968 -0.229793472  0.000000000
     1.256237318  2.175866861  0.000000000     0.398013968  0.229793472  0.000000000
     0.000000000  0.000000000  7.526459174     0.000000000  0.000000000  0.132864602

  length of vectors
     2.512474636  2.512474636  7.526459174     0.459586943  0.459586943  0.132864602


 
 old parameters found on file WAVECAR:
  energy-cutoff  :      500.00
  volume of cell :       41.15
      direct lattice vectors                 reciprocal lattice vectors
     1.256237318 -2.175866861  0.000000000     0.398013968 -0.229793472  0.000000000
     1.256237318  2.175866861  0.000000000     0.398013968  0.229793472  0.000000000
     0.000000000  0.000000000  7.526459174     0.000000000  0.000000000  0.132864602

  length of vectors

 
 k-points in units of 2pi/SCALE and weight: BANDS BN                                
   0.00000000  0.00000000  0.00000000       0.007
   0.01047405 -0.00604720  0.00000000       0.007
   0.02094810 -0.01209439  0.00000000       0.007
   0.03142216 -0.01814159  0.00000000       0.007
   0.04189621 -0.02418879  0.00000000       0.007
   0.05237026 -0.03023598  0.00000000       0.007
   0.06284431 -0.03628318  0.00000000       0.007
   0.07331836 -0.04233038  0.00000000       0.007
   0.08379241 -0.04837757  0.00000000       0.007
   0.09426647 -0.05442477  0.00000000       0.007
   0.10474052 -0.06047197  0.00000000       0.007
   0.11521457 -0.06651916  0.00000000       0.007
   0.12568862 -0.07256636  0.00000000       0.007
   0.13616267 -0.07861356  0.00000000       0.007
   0.14663673 -0.08466075  0.00000000       0.007
   0.15711078 -0.09070795  0.00000000       0.007
   0.16758483 -0.09675515  0.00000000       0.007
   0.17805888 -0.10280234  0.00000000       0.007
   0.18853293 -0.10884954  0.00000000       0.007
   0.19900698 -0.11489674  0.00000000       0.007
   0.19900698 -0.11489674  0.00000000       0.007
   0.20110179 -0.10884954  0.00000000       0.007
   0.20319660 -0.10280234  0.00000000       0.007
   0.20529142 -0.09675515  0.00000000       0.007
   0.20738623 -0.09070795  0.00000000       0.007
   0.20948104 -0.08466075  0.00000000       0.007
   0.21157585 -0.07861356  0.00000000       0.007
   0.21367066 -0.07256636  0.00000000       0.007
   0.21576547 -0.06651916  0.00000000       0.007
   0.21786028 -0.06047197  0.00000000       0.007
   0.21995509 -0.05442477  0.00000000       0.007
   0.22204990 -0.04837757  0.00000000       0.007
   0.22414471 -0.04233038  0.00000000       0.007
   0.22623952 -0.03628318  0.00000000       0.007
   0.22833433 -0.03023598  0.00000000       0.007
   0.23042914 -0.02418879  0.00000000       0.007
   0.23252395 -0.01814159  0.00000000       0.007
   0.23461876 -0.01209439  0.00000000       0.007
   0.23671357 -0.00604720  0.00000000       0.007
   0.23880838 -0.00000000  0.00000000       0.007
   0.23880838  0.00000000  0.00000000       0.007
   0.22623952  0.00000000  0.00000000       0.007
   0.21367066  0.00000000  0.00000000       0.007
   0.20110179  0.00000000  0.00000000       0.007
   0.18853293  0.00000000  0.00000000       0.007
   0.17596407  0.00000000  0.00000000       0.007
   0.16339521  0.00000000  0.00000000       0.007
   0.15082635  0.00000000  0.00000000       0.007
   0.13825748  0.00000000  0.00000000       0.007
   0.12568862  0.00000000  0.00000000       0.007
   0.11311976  0.00000000  0.00000000       0.007
   0.10055090  0.00000000  0.00000000       0.007
   0.08798204  0.00000000  0.00000000       0.007
   0.07541317  0.00000000  0.00000000       0.007
   0.06284431  0.00000000  0.00000000       0.007
   0.05027545  0.00000000  0.00000000       0.007
   0.03770659  0.00000000  0.00000000       0.007
   0.02513772  0.00000000  0.00000000       0.007
   0.01256886  0.00000000  0.00000000       0.007
   0.00000000  0.00000000  0.00000000       0.007
   0.00000000  0.00000000  0.00000000       0.007
   0.00000000  0.00000000  0.00349644       0.007
   0.00000000  0.00000000  0.00699287       0.007
   0.00000000  0.00000000  0.01048931       0.007
   0.00000000  0.00000000  0.01398575       0.007
   0.00000000  0.00000000  0.01748218       0.007
   0.00000000  0.00000000  0.02097862       0.007
   0.00000000  0.00000000  0.02447506       0.007
   0.00000000  0.00000000  0.02797150       0.007
   0.00000000  0.00000000  0.03146793       0.007
   0.00000000  0.00000000  0.03496437       0.007
   0.00000000  0.00000000  0.03846081       0.007
   0.00000000  0.00000000  0.04195724       0.007
   0.00000000  0.00000000  0.04545368       0.007
   0.00000000  0.00000000  0.04895012       0.007
   0.00000000  0.00000000  0.05244655       0.007
   0.00000000  0.00000000  0.05594299       0.007
   0.00000000  0.00000000  0.05943943       0.007
   0.00000000  0.00000000  0.06293586       0.007
   0.00000000  0.00000000  0.06643230       0.007
   0.00000000  0.00000000  0.06643230       0.007
   0.01047405 -0.00604720  0.06643230       0.007
   0.02094810 -0.01209439  0.06643230       0.007
   0.03142216 -0.01814159  0.06643230       0.007
   0.04189621 -0.02418879  0.06643230       0.007
   0.05237026 -0.03023598  0.06643230       0.007
   0.06284431 -0.03628318  0.06643230       0.007
   0.07331836 -0.04233038  0.06643230       0.007
   0.08379241 -0.04837757  0.06643230       0.007
   0.09426647 -0.05442477  0.06643230       0.007
   0.10474052 -0.06047197  0.06643230       0.007
   0.11521457 -0.06651916  0.06643230       0.007
   0.12568862 -0.07256636  0.06643230       0.007
   0.13616267 -0.07861356  0.06643230       0.007
   0.14663673 -0.08466075  0.06643230       0.007
   0.15711078 -0.09070795  0.06643230       0.007
   0.16758483 -0.09675515  0.06643230       0.007
   0.17805888 -0.10280234  0.06643230       0.007
   0.18853293 -0.10884954  0.06643230       0.007
   0.19900698 -0.11489674  0.06643230       0.007
   0.19900698 -0.11489674  0.06643230       0.007
   0.20110179 -0.10884954  0.06643230       0.007
   0.20319660 -0.10280234  0.06643230       0.007
   0.20529142 -0.09675515  0.06643230       0.007
   0.20738623 -0.09070795  0.06643230       0.007
   0.20948104 -0.08466075  0.06643230       0.007
   0.21157585 -0.07861356  0.06643230       0.007
   0.21367066 -0.07256636  0.06643230       0.007
   0.21576547 -0.06651916  0.06643230       0.007
   0.21786028 -0.06047197  0.06643230       0.007
   0.21995509 -0.05442477  0.06643230       0.007
   0.22204990 -0.04837757  0.06643230       0.007
   0.22414471 -0.04233038  0.06643230       0.007
   0.22623952 -0.03628318  0.06643230       0.007
   0.22833433 -0.03023598  0.06643230       0.007
   0.23042914 -0.02418879  0.06643230       0.007
   0.23252395 -0.01814159  0.06643230       0.007
   0.23461876 -0.01209439  0.06643230       0.007
   0.23671357 -0.00604720  0.06643230       0.007
   0.23880838 -0.00000000  0.06643230       0.007
   0.23880838  0.00000000  0.06643230       0.007
   0.22623952  0.00000000  0.06643230       0.007
   0.21367066  0.00000000  0.06643230       0.007
   0.20110179  0.00000000  0.06643230       0.007
   0.18853293  0.00000000  0.06643230       0.007
   0.17596407  0.00000000  0.06643230       0.007
   0.16339521  0.00000000  0.06643230       0.007
   0.15082635  0.00000000  0.06643230       0.007
   0.13825748  0.00000000  0.06643230       0.007
   0.12568862  0.00000000  0.06643230       0.007
   0.11311976  0.00000000  0.06643230       0.007
   0.10055090  0.00000000  0.06643230       0.007
   0.08798204  0.00000000  0.06643230       0.007
   0.07541317  0.00000000  0.06643230       0.007
   0.06284431  0.00000000  0.06643230       0.007
   0.05027545  0.00000000  0.06643230       0.007
   0.03770659  0.00000000  0.06643230       0.007
   0.02513772  0.00000000  0.06643230       0.007
   0.01256886  0.00000000  0.06643230       0.007
   0.00000000  0.00000000  0.06643230       0.007
 
 k-points in reciprocal lattice and weights: BANDS BN                                
   0.00000000  0.00000000  0.00000000       0.007
   0.02631579  0.00000000  0.00000000       0.007
   0.05263158  0.00000000  0.00000000       0.007
   0.07894737  0.00000000  0.00000000       0.007
   0.10526316  0.00000000  0.00000000       0.007
   0.13157895  0.00000000  0.00000000       0.007
   0.15789474  0.00000000  0.00000000       0.007
   0.18421053  0.00000000  0.00000000       0.007
   0.21052632  0.00000000  0.00000000       0.007
   0.23684211  0.00000000  0.00000000       0.007
   0.26315789  0.00000000  0.00000000       0.007
   0.28947368  0.00000000  0.00000000       0.007
   0.31578947  0.00000000  0.00000000       0.007
   0.34210526  0.00000000  0.00000000       0.007
   0.36842105  0.00000000  0.00000000       0.007
   0.39473684  0.00000000  0.00000000       0.007
   0.42105263  0.00000000  0.00000000       0.007
   0.44736842  0.00000000  0.00000000       0.007
   0.47368421  0.00000000  0.00000000       0.007
   0.50000000  0.00000000  0.00000000       0.007
   0.50000000  0.00000000  0.00000000       0.007
   0.48947368  0.01578947  0.00000000       0.007
   0.47894737  0.03157895  0.00000000       0.007
   0.46842105  0.04736842  0.00000000       0.007
   0.45789474  0.06315789  0.00000000       0.007
   0.44736842  0.07894737  0.00000000       0.007
   0.43684211  0.09473684  0.00000000       0.007
   0.42631579  0.11052632  0.00000000       0.007
   0.41578947  0.12631579  0.00000000       0.007
   0.40526316  0.14210526  0.00000000       0.007
   0.39473684  0.15789474  0.00000000       0.007
   0.38421053  0.17368421  0.00000000       0.007
   0.37368421  0.18947368  0.00000000       0.007
   0.36315789  0.20526316  0.00000000       0.007
   0.35263158  0.22105263  0.00000000       0.007
   0.34210526  0.23684211  0.00000000       0.007
   0.33157895  0.25263158  0.00000000       0.007
   0.32105263  0.26842105  0.00000000       0.007
   0.31052632  0.28421053  0.00000000       0.007
   0.30000000  0.30000000  0.00000000       0.007
   0.30000000  0.30000000  0.00000000       0.007
   0.28421053  0.28421053  0.00000000       0.007
   0.26842105  0.26842105  0.00000000       0.007
   0.25263158  0.25263158  0.00000000       0.007
   0.23684211  0.23684211  0.00000000       0.007
   0.22105263  0.22105263  0.00000000       0.007
   0.20526316  0.20526316  0.00000000       0.007
   0.18947368  0.18947368  0.00000000       0.007
   0.17368421  0.17368421  0.00000000       0.007
   0.15789474  0.15789474  0.00000000       0.007
   0.14210526  0.14210526  0.00000000       0.007
   0.12631579  0.12631579  0.00000000       0.007
   0.11052632  0.11052632  0.00000000       0.007
   0.09473684  0.09473684  0.00000000       0.007
   0.07894737  0.07894737  0.00000000       0.007
   0.06315789  0.06315789  0.00000000       0.007
   0.04736842  0.04736842  0.00000000       0.007
   0.03157895  0.03157895  0.00000000       0.007
   0.01578947  0.01578947  0.00000000       0.007
   0.00000000  0.00000000  0.00000000       0.007
   0.00000000  0.00000000  0.00000000       0.007
   0.00000000  0.00000000  0.02631579       0.007
   0.00000000  0.00000000  0.05263158       0.007
   0.00000000  0.00000000  0.07894737       0.007
   0.00000000  0.00000000  0.10526316       0.007
   0.00000000  0.00000000  0.13157895       0.007
   0.00000000  0.00000000  0.15789474       0.007
   0.00000000  0.00000000  0.18421053       0.007
   0.00000000  0.00000000  0.21052632       0.007
   0.00000000  0.00000000  0.23684211       0.007
   0.00000000  0.00000000  0.26315789       0.007
   0.00000000  0.00000000  0.28947368       0.007
   0.00000000  0.00000000  0.31578947       0.007
   0.00000000  0.00000000  0.34210526       0.007
   0.00000000  0.00000000  0.36842105       0.007
   0.00000000  0.00000000  0.39473684       0.007
   0.00000000  0.00000000  0.42105263       0.007
   0.00000000  0.00000000  0.44736842       0.007
   0.00000000  0.00000000  0.47368421       0.007
   0.00000000  0.00000000  0.50000000       0.007
   0.00000000  0.00000000  0.50000000       0.007
   0.02631579  0.00000000  0.50000000       0.007
   0.05263158  0.00000000  0.50000000       0.007
   0.07894737  0.00000000  0.50000000       0.007
   0.10526316  0.00000000  0.50000000       0.007
   0.13157895  0.00000000  0.50000000       0.007
   0.15789474  0.00000000  0.50000000       0.007
   0.18421053  0.00000000  0.50000000       0.007
   0.21052632  0.00000000  0.50000000       0.007
   0.23684211  0.00000000  0.50000000       0.007
   0.26315789  0.00000000  0.50000000       0.007
   0.28947368  0.00000000  0.50000000       0.007
   0.31578947  0.00000000  0.50000000       0.007
   0.34210526  0.00000000  0.50000000       0.007
   0.36842105  0.00000000  0.50000000       0.007
   0.39473684  0.00000000  0.50000000       0.007
   0.42105263  0.00000000  0.50000000       0.007
   0.44736842  0.00000000  0.50000000       0.007
   0.47368421  0.00000000  0.50000000       0.007
   0.50000000  0.00000000  0.50000000       0.007
   0.50000000  0.00000000  0.50000000       0.007
   0.48947368  0.01578947  0.50000000       0.007
   0.47894737  0.03157895  0.50000000       0.007
   0.46842105  0.04736842  0.50000000       0.007
   0.45789474  0.06315789  0.50000000       0.007
   0.44736842  0.07894737  0.50000000       0.007
   0.43684211  0.09473684  0.50000000       0.007
   0.42631579  0.11052632  0.50000000       0.007
   0.41578947  0.12631579  0.50000000       0.007
   0.40526316  0.14210526  0.50000000       0.007
   0.39473684  0.15789474  0.50000000       0.007
   0.38421053  0.17368421  0.50000000       0.007
   0.37368421  0.18947368  0.50000000       0.007
   0.36315789  0.20526316  0.50000000       0.007
   0.35263158  0.22105263  0.50000000       0.007
   0.34210526  0.23684211  0.50000000       0.007
   0.33157895  0.25263158  0.50000000       0.007
   0.32105263  0.26842105  0.50000000       0.007
   0.31052632  0.28421053  0.50000000       0.007
   0.30000000  0.30000000  0.50000000       0.007
   0.30000000  0.30000000  0.50000000       0.007
   0.28421053  0.28421053  0.50000000       0.007
   0.26842105  0.26842105  0.50000000       0.007
   0.25263158  0.25263158  0.50000000       0.007
   0.23684211  0.23684211  0.50000000       0.007
   0.22105263  0.22105263  0.50000000       0.007
   0.20526316  0.20526316  0.50000000       0.007
   0.18947368  0.18947368  0.50000000       0.007
   0.17368421  0.17368421  0.50000000       0.007
   0.15789474  0.15789474  0.50000000       0.007
   0.14210526  0.14210526  0.50000000       0.007
   0.12631579  0.12631579  0.50000000       0.007
   0.11052632  0.11052632  0.50000000       0.007
   0.09473684  0.09473684  0.50000000       0.007
   0.07894737  0.07894737  0.50000000       0.007
   0.06315789  0.06315789  0.50000000       0.007
   0.04736842  0.04736842  0.50000000       0.007
   0.03157895  0.03157895  0.50000000       0.007
   0.01578947  0.01578947  0.50000000       0.007
   0.00000000  0.00000000  0.50000000       0.007
 
 position of ions in fractional coordinates (direct lattice) 
   0.00000000  0.00000000  0.00000000
   0.33333333  0.66666667  0.00000000
 
 position of ions in cartesian coordinates  (Angst):
   0.00000000  0.00000000  0.00000000
   1.25623732  0.72528895  0.00000000
 


--------------------------------------------------------------------------------------------------------


 k-point  1 :   0.0000 0.0000 0.0000  plane waves:    1041
 k-point  2 :   0.0263 0.0000 0.0000  plane waves:    1047
 k-point  3 :   0.0526 0.0000 0.0000  plane waves:    1054
 k-point  4 :   0.0789 0.0000 0.0000  plane waves:    1064
 k-point  5 :   0.1053 0.0000 0.0000  plane waves:    1060
 k-point  6 :   0.1316 0.0000 0.0000  plane waves:    1054
 k-point  7 :   0.1579 0.0000 0.0000  plane waves:    1062
 k-point  8 :   0.1842 0.0000 0.0000  plane waves:    1066
 k-point  9 :   0.2105 0.0000 0.0000  plane waves:    1068
 k-point 10 :   0.2368 0.0000 0.0000  plane waves:    1062
 k-point 11 :   0.2632 0.0000 0.0000  plane waves:    1062
 k-point 12 :   0.2895 0.0000 0.0000  plane waves:    1058
 k-point 13 :   0.3158 0.0000 0.0000  plane waves:    1060
 k-point 14 :   0.3421 0.0000 0.0000  plane waves:    1056
 k-point 15 :   0.3684 0.0000 0.0000  plane waves:    1048
 k-point 16 :   0.3947 0.0000 0.0000  plane waves:    1040
 k-point 17 :   0.4211 0.0000 0.0000  plane waves:    1038
 k-point 18 :   0.4474 0.0000 0.0000  plane waves:    1034
 k-point 19 :   0.4737 0.0000 0.0000  plane waves:    1034
 k-point 20 :   0.5000 0.0000 0.0000  plane waves:    1032
 k-point 21 :   0.5000 0.0000 0.0000  plane waves:    1032
 k-point 22 :   0.4895 0.0158 0.0000  plane waves:    1034
 k-point 23 :   0.4789 0.0316 0.0000  plane waves:    1034
 k-point 24 :   0.4684 0.0474 0.0000  plane waves:    1032
 k-point 25 :   0.4579 0.0632 0.0000  plane waves:    1032
 k-point 26 :   0.4474 0.0789 0.0000  plane waves:    1042
 k-point 27 :   0.4368 0.0947 0.0000  plane waves:    1042
 k-point 28 :   0.4263 0.1105 0.0000  plane waves:    1046
 k-point 29 :   0.4158 0.1263 0.0000  plane waves:    1045
 k-point 30 :   0.4053 0.1421 0.0000  plane waves:    1045
 k-point 31 :   0.3947 0.1579 0.0000  plane waves:    1043
 k-point 32 :   0.3842 0.1737 0.0000  plane waves:    1041
 k-point 33 :   0.3737 0.1895 0.0000  plane waves:    1039
 k-point 34 :   0.3632 0.2053 0.0000  plane waves:    1035
 k-point 35 :   0.3526 0.2211 0.0000  plane waves:    1033
 k-point 36 :   0.3421 0.2368 0.0000  plane waves:    1030
 k-point 37 :   0.3316 0.2526 0.0000  plane waves:    1025
 k-point 38 :   0.3211 0.2684 0.0000  plane waves:    1028
 k-point 39 :   0.3105 0.2842 0.0000  plane waves:    1024
 k-point 40 :   0.3000 0.3000 0.0000  plane waves:    1026
 k-point 41 :   0.3000 0.3000 0.0000  plane waves:    1026
 k-point 42 :   0.2842 0.2842 0.0000  plane waves:    1029
 k-point 43 :   0.2684 0.2684 0.0000  plane waves:    1033
 k-point 44 :   0.2526 0.2526 0.0000  plane waves:    1029
 k-point 45 :   0.2368 0.2368 0.0000  plane waves:    1037
 k-point 46 :   0.2211 0.2211 0.0000  plane waves:    1029
 k-point 47 :   0.2053 0.2053 0.0000  plane waves:    1035
 k-point 48 :   0.1895 0.1895 0.0000  plane waves:    1045
 k-point 49 :   0.1737 0.1737 0.0000  plane waves:    1053
 k-point 50 :   0.1579 0.1579 0.0000  plane waves:    1049
 k-point 51 :   0.1421 0.1421 0.0000  plane waves:    1057
 k-point 52 :   0.1263 0.1263 0.0000  plane waves:    1053
 k-point 53 :   0.1105 0.1105 0.0000  plane waves:    1063
 k-point 54 :   0.0947 0.0947 0.0000  plane waves:    1059
 k-point 55 :   0.0789 0.0789 0.0000  plane waves:    1055
 k-point 56 :   0.0632 0.0632 0.0000  plane waves:    1059
 k-point 57 :   0.0474 0.0474 0.0000  plane waves:    1057
 k-point 58 :   0.0316 0.0316 0.0000  plane waves:    1061
 k-point 59 :   0.0158 0.0158 0.0000  plane waves:    1045
 k-point 60 :   0.0000 0.0000 0.0000  plane waves:    1041
 k-point 61 :   0.0000 0.0000 0.0000  plane waves:    1041
 k-point 62 :   0.0000 0.0000 0.0263  plane waves:    1047
 k-point 63 :   0.0000 0.0000 0.0526  plane waves:    1047
 k-point 64 :   0.0000 0.0000 0.0789  plane waves:    1047
 k-point 65 :   0.0000 0.0000 0.1053  plane waves:    1047
 k-point 66 :   0.0000 0.0000 0.1316  plane waves:    1047
 k-point 67 :   0.0000 0.0000 0.1579  plane waves:    1053
 k-point 68 :   0.0000 0.0000 0.1842  plane waves:    1053
 k-point 69 :   0.0000 0.0000 0.2105  plane waves:    1053
 k-point 70 :   0.0000 0.0000 0.2368  plane waves:    1041
 k-point 71 :   0.0000 0.0000 0.2632  plane waves:    1041
 k-point 72 :   0.0000 0.0000 0.2895  plane waves:    1048
 k-point 73 :   0.0000 0.0000 0.3158  plane waves:    1054
 k-point 74 :   0.0000 0.0000 0.3421  plane waves:    1054
 k-point 75 :   0.0000 0.0000 0.3684  plane waves:    1048
 k-point 76 :   0.0000 0.0000 0.3947  plane waves:    1048
 k-point 77 :   0.0000 0.0000 0.4211  plane waves:    1048
 k-point 78 :   0.0000 0.0000 0.4474  plane waves:    1048
 k-point 79 :   0.0000 0.0000 0.4737  plane waves:    1048
 k-point 80 :   0.0000 0.0000 0.5000  plane waves:    1048
 k-point 81 :   0.0000 0.0000 0.5000  plane waves:    1048
 k-point 82 :   0.0263 0.0000 0.5000  plane waves:    1048
 k-point 83 :   0.0526 0.0000 0.5000  plane waves:    1038
 k-point 84 :   0.0789 0.0000 0.5000  plane waves:    1044
 k-point 85 :   0.1053 0.0000 0.5000  plane waves:    1046
 k-point 86 :   0.1316 0.0000 0.5000  plane waves:    1060
 k-point 87 :   0.1579 0.0000 0.5000  plane waves:    1058
 k-point 88 :   0.1842 0.0000 0.5000  plane waves:    1066
 k-point 89 :   0.2105 0.0000 0.5000  plane waves:    1062
 k-point 90 :   0.2368 0.0000 0.5000  plane waves:    1054
 k-point 91 :   0.2632 0.0000 0.5000  plane waves:    1052
 k-point 92 :   0.2895 0.0000 0.5000  plane waves:    1050
 k-point 93 :   0.3158 0.0000 0.5000  plane waves:    1050
 k-point 94 :   0.3421 0.0000 0.5000  plane waves:    1040
 k-point 95 :   0.3684 0.0000 0.5000  plane waves:    1044
 k-point 96 :   0.3947 0.0000 0.5000  plane waves:    1040
 k-point 97 :   0.4211 0.0000 0.5000  plane waves:    1040
 k-point 98 :   0.4474 0.0000 0.5000  plane waves:    1042
 k-point 99 :   0.4737 0.0000 0.5000  plane waves:    1038
 k-point ** :   0.5000 0.0000 0.5000  plane waves:    1020
 k-point ** :   0.5000 0.0000 0.5000  plane waves:    1020
 k-point ** :   0.4895 0.0158 0.5000  plane waves:    1030
 k-point ** :   0.4789 0.0316 0.5000  plane waves:    1036
 k-point ** :   0.4684 0.0474 0.5000  plane waves:    1044
 k-point ** :   0.4579 0.0632 0.5000  plane waves:    1046
 k-point ** :   0.4474 0.0789 0.5000  plane waves:    1040
 k-point ** :   0.4368 0.0947 0.5000  plane waves:    1038
 k-point ** :   0.4263 0.1105 0.5000  plane waves:    1036
 k-point ** :   0.4158 0.1263 0.5000  plane waves:    1036
 k-point ** :   0.4053 0.1421 0.5000  plane waves:    1038
 k-point ** :   0.3947 0.1579 0.5000  plane waves:    1032
 k-point ** :   0.3842 0.1737 0.5000  plane waves:    1034
 k-point ** :   0.3737 0.1895 0.5000  plane waves:    1038
 k-point ** :   0.3632 0.2053 0.5000  plane waves:    1040
 k-point ** :   0.3526 0.2211 0.5000  plane waves:    1044
 k-point ** :   0.3421 0.2368 0.5000  plane waves:    1040
 k-point ** :   0.3316 0.2526 0.5000  plane waves:    1042
 k-point ** :   0.3211 0.2684 0.5000  plane waves:    1040
 k-point ** :   0.3105 0.2842 0.5000  plane waves:    1036
 k-point ** :   0.3000 0.3000 0.5000  plane waves:    1038
 k-point ** :   0.3000 0.3000 0.5000  plane waves:    1038
 k-point ** :   0.2842 0.2842 0.5000  plane waves:    1040
 k-point ** :   0.2684 0.2684 0.5000  plane waves:    1050
 k-point ** :   0.2526 0.2526 0.5000  plane waves:    1050
 k-point ** :   0.2368 0.2368 0.5000  plane waves:    1042
 k-point ** :   0.2211 0.2211 0.5000  plane waves:    1038
 k-point ** :   0.2053 0.2053 0.5000  plane waves:    1044
 k-point ** :   0.1895 0.1895 0.5000  plane waves:    1042
 k-point ** :   0.1737 0.1737 0.5000  plane waves:    1054
 k-point ** :   0.1579 0.1579 0.5000  plane waves:    1048
 k-point ** :   0.1421 0.1421 0.5000  plane waves:    1048
 k-point ** :   0.1263 0.1263 0.5000  plane waves:    1056
 k-point ** :   0.1105 0.1105 0.5000  plane waves:    1056
 k-point ** :   0.0947 0.0947 0.5000  plane waves:    1058
 k-point ** :   0.0789 0.0789 0.5000  plane waves:    1048
 k-point ** :   0.0632 0.0632 0.5000  plane waves:    1048
 k-point ** :   0.0474 0.0474 0.5000  plane waves:    1042
 k-point ** :   0.0316 0.0316 0.5000  plane waves:    1042
 k-point ** :   0.0158 0.0158 0.5000  plane waves:    1048
 k-point ** :   0.0000 0.0000 0.5000  plane waves:    1048

 maximum and minimum number of plane-waves per node :      1068     1020

 maximum number of plane-waves:      1068
 maximum index in each direction: 
   IXMAX=    4   IYMAX=    4   IZMAX=   13
   IXMIN=   -5   IYMIN=   -4   IZMIN=  -14


 serial   3D FFT for wavefunctions
 parallel 3D FFT for charge:
    minimum data exchange during FFTs selected (reduces bandwidth)


 total amount of memory used by VASP MPI-rank0    53019. kBytes
=======================================================================

   base      :      30000. kBytes
   nonl-proj :      19388. kBytes
   fftplans  :        561. kBytes
   grid      :        600. kBytes
   one-center:          6. kBytes
   wavefun   :       2464. kBytes
 
     INWAV:  cpu time    0.1795: real time    0.1806
 initial charge density was supplied:
 number of electron       8.0000000 magnetization 
 keeping initial charge density in first step


--------------------------------------------------------------------------------------------------------


 Maximum index for augmentation-charges         1246 (set IRDMAX)


--------------------------------------------------------------------------------------------------------


 First call to EWALD:  gamma=   0.513
 Maximum number of real-space cells 4x 4x 2
 Maximum number of reciprocal cells 2x 2x 5

    FEWALD:  cpu time    0.0016: real time    0.0016


--------------------------------------- Iteration      1(   1)  ---------------------------------------


    POTLOK:  cpu time    0.0032: real time    0.0042
    SETDIJ:  cpu time    0.0022: real time    0.0022
     EDDAV:  cpu time    0.6959: real time    0.7007
       DOS:  cpu time    0.0005: real time    0.0005
    --------------------------------------------
      LOOP:  cpu time    0.7018: real time    0.7076

 eigenvalue-minimisations  :  6520
 total energy-change (2. order) :-0.1598334E+02  (-0.2438287E+02)
 number of electron       8.0000000 magnetization 
 augmentation part        8.0000000 magnetization 

 Free energy of the ion-electron system (eV)
  ---------------------------------------------------
  alpha Z        PSCENC =         8.64846017
  Ewald energy   TEWEN  =       121.23345169
  -Hartree energ DENC   =      -435.83891711
  -exchange      EXHF   =         0.00000000
  -V(xc)+E(xc)   XCENC  =        28.32364994
  PAW double counting   =       925.43029887     -926.16060211
  entropy T*S    EENTRO =        -0.00000000
  eigenvalues    EBANDS =       -73.32364671
  atomic energy  EATOM  =       335.70396624
  Solvation  Ediel_sol  =         0.00000000
  ---------------------------------------------------
  free energy    TOTEN  =       -15.98333901 eV

  energy without entropy =      -15.98333901  energy(sigma->0) =      -15.98333901


--------------------------------------------------------------------------------------------------------




--------------------------------------- Iteration      1(   2)  ---------------------------------------


     EDDAV:  cpu time    0.9875: real time    0.9942
       DOS:  cpu time    0.0003: real time    0.0003
    --------------------------------------------
      LOOP:  cpu time    0.9878: real time    0.9945

 eigenvalue-minimisations  :  7880
 total energy-change (2. order) :-0.1186777E+00  (-0.1186777E+00)
 number of electron       8.0000000 magnetization 
 augmentation part        8.0000000 magnetization 

 Free energy of the ion-electron system (eV)
  ---------------------------------------------------
  alpha Z        PSCENC =         8.64846017
  Ewald energy   TEWEN  =       121.23345169
  -Hartree energ DENC   =      -435.83891711
  -exchange      EXHF   =         0.00000000
  -V(xc)+E(xc)   XCENC  =        28.32364994
  PAW double counting   =       925.43029887     -926.16060211
  entropy T*S    EENTRO =        -0.00000000
  eigenvalues    EBANDS =       -73.44232436
  atomic energy  EATOM  =       335.70396624
  Solvation  Ediel_sol  =         0.00000000
  ---------------------------------------------------
  free energy    TOTEN  =       -16.10201666 eV

  energy without entropy =      -16.10201666  energy(sigma->0) =      -16.10201666


--------------------------------------------------------------------------------------------------------




--------------------------------------- Iteration      1(   3)  ---------------------------------------


     EDDAV:  cpu time    1.0347: real time    1.0429
       DOS:  cpu time    0.0003: real time    0.0003
    --------------------------------------------
      LOOP:  cpu time    1.0350: real time    1.0432

 eigenvalue-minimisations  :  8340
 total energy-change (2. order) :-0.4175832E-04  (-0.4175833E-04)
 number of electron       8.0000000 magnetization 
 augmentation part        8.0000000 magnetization 

 Free energy of the ion-electron system (eV)
  ---------------------------------------------------
  alpha Z        PSCENC =         8.64846017
  Ewald energy   TEWEN  =       121.23345169
  -Hartree energ DENC   =      -435.83891711
  -exchange      EXHF   =         0.00000000
  -V(xc)+E(xc)   XCENC  =        28.32364994
  PAW double counting   =       925.43029887     -926.16060211
  entropy T*S    EENTRO =        -0.00000000
  eigenvalues    EBANDS =       -73.44236612
  atomic energy  EATOM  =       335.70396624
  Solvation  Ediel_sol  =         0.00000000
  ---------------------------------------------------
  free energy    TOTEN  =       -16.10205842 eV

  energy without entropy =      -16.10205842  energy(sigma->0) =      -16.10205842


--------------------------------------------------------------------------------------------------------




 average (electrostatic) potential at core
  the test charge radii are     0.7672  0.7089
  (the norm of the test charge is              1.0000)
       1 -33.5715       2 -69.4738
 
 
 
 E-fermi :  -2.2160     XC(G=0):  -5.4337     alpha+bet : -4.8091


 k-point     1 :       0.0000    0.0000    0.0000
  band No.  band energies     occupation 
      1     -19.8673      2.00000
      2      -7.4564      2.00000
      3      -3.6050      2.00000
      4      -3.6049      2.00000
      5       2.0573      0.00000
      6       5.2089      0.00000
      7       6.8167      0.00000
      8       9.2572      0.00000
      9       9.2572      0.00000
     10      10.7658      0.00000
     11      11.8364      0.00000
     12      17.2516      0.00000
     13      20.4396      0.00000
     14      23.2649      0.00000
     15      27.3841      0.00000
     16      27.3841      0.00000
     17      29.1674      0.00000
     18      30.4354      0.00000
     19      30.4355      0.00000
     20      33.0657      0.00000

 k-point     2 :       0.0263    0.0000    0.0000
  band No.  band energies     occupation 
      1     -19.8541      2.00000
      2      -7.4386      2.00000
      3      -3.6632      2.00000
      4      -3.6319      2.00000
      5       2.0803      0.00000
      6       5.2256      0.00000
      7       6.8415      0.00000
      8       9.2500      0.00000
      9       9.3172      0.00000
     10      10.7294      0.00000
     11      11.8775      0.00000
     12      17.2528      0.00000
     13      20.4687      0.00000
     14      23.2940      0.00000
     15      27.1820      0.00000
     16      27.1968      0.00000
     17      28.8132      0.00000
     18      30.6622      0.00000
     19      30.9871      0.00000
     20      31.9924      0.00000

 k-point     3 :       0.0526    0.0000    0.0000
  band No.  band energies     occupation 
      1     -19.8143      2.00000
      2      -7.3852      2.00000
      3      -3.8343      2.00000
      4      -3.7105      2.00000
      5       2.1491      0.00000
      6       5.2754      0.00000
      7       6.9140      0.00000
      8       9.2299      0.00000
      9       9.4951      0.00000
     10      10.6216      0.00000
     11      11.9987      0.00000
     12      17.2569      0.00000
     13      20.5541      0.00000
     14      23.3796      0.00000
     15      26.5280      0.00000
     16      26.7480      0.00000
     17      28.5555      0.00000
     18      30.5503      0.00000
     19      31.2283      0.00000
     20      31.8354      0.00000

 k-point     4 :       0.0789    0.0000    0.0000
  band No.  band energies     occupation 
      1     -19.7483      2.00000
      2      -7.2966      2.00000
      3      -4.1080      2.00000
      4      -3.8359      2.00000
      5       2.2624      0.00000
      6       5.3566      0.00000
      7       7.0291      0.00000
      8       9.2015      0.00000
      9       9.7849      0.00000
     10      10.4446      0.00000
     11      12.1934      0.00000
     12      17.2657      0.00000
     13      20.6899      0.00000
     14      23.5150      0.00000
     15      25.6152      0.00000
     16      26.1940      0.00000
     17      28.5558      0.00000
     18      29.1150      0.00000
     19      31.1393      0.00000
     20      31.8816      0.00000

 k-point     5 :       0.1053    0.0000    0.0000
  band No.  band energies     occupation 
      1     -19.6563      2.00000
      2      -7.1730      2.00000
      3      -4.4698      2.00000
      4      -4.0000      2.00000
      5       2.4190      0.00000
      6       5.4664      0.00000
      7       7.1788      0.00000
      8       9.1723      0.00000
      9      10.1780      0.00000
     10      10.2038      0.00000
     11      12.4525      0.00000
     12      17.2805      0.00000
     13      20.8673      0.00000
     14      23.6821      0.00000
     15      24.6558      0.00000
     16      25.6146      0.00000
     17      27.7336      0.00000
     18      28.6303      0.00000
     19      30.4784      0.00000
     20      31.2001      0.00000

 k-point     6 :       0.1316    0.0000    0.0000
  band No.  band energies     occupation 
      1     -19.5388      2.00000
      2      -7.0151      2.00000
      3      -4.9037      2.00000
      4      -4.1939      2.00000
      5       2.6176      0.00000
      6       5.5993      0.00000
      7       7.3528      0.00000
      8       9.1517      0.00000
      9       9.9076      0.00000
     10      10.6641      0.00000
     11      12.7647      0.00000
     12      17.3002      0.00000
     13      21.0749      0.00000
     14      23.7320      0.00000
     15      23.8273      0.00000
     16      25.0437      0.00000
     17      26.4626      0.00000
     18      28.6306      0.00000
     19      29.8608      0.00000
     20      30.5124      0.00000

 k-point     7 :       0.1579    0.0000    0.0000
  band No.  band energies     occupation 
      1     -19.3968      2.00000
      2      -6.8237      2.00000
      3      -5.3936      2.00000
      4      -4.4087      2.00000
      5       2.8572      0.00000
      6       5.7456      0.00000
      7       7.5367      0.00000
      8       9.1542      0.00000
      9       9.5711      0.00000
     10      11.2310      0.00000
     11      13.1175      0.00000
     12      17.3196      0.00000
     13      21.2968      0.00000
     14      22.8782      0.00000
     15      23.7565      0.00000
     16      24.4965      0.00000
     17      25.4891      0.00000
     18      28.3523      0.00000
     19      29.2768      0.00000
     20      29.6853      0.00000

 k-point     8 :       0.1842    0.0000    0.0000
  band No.  band energies     occupation 
      1     -19.2311      2.00000
      2      -6.5998      2.00000
      3      -5.9242      2.00000
      4      -4.6354      2.00000
      5       3.1374      0.00000
      6       5.8872      0.00000
      7       7.7113      0.00000
      8       9.1997      0.00000
      9       9.2188      0.00000
     10      11.8676      0.00000
     11      13.4974      0.00000
     12      17.3272      0.00000
     13      21.4954      0.00000
     14      22.1154      0.00000
     15      23.1273      0.00000
     16      23.9808      0.00000
     17      25.1546      0.00000
     18      27.6760      0.00000
     19      28.7381      0.00000
     20      28.7461      0.00000

 k-point     9 :       0.2105    0.0000    0.0000
  band No.  band energies     occupation 
      1     -19.0430      2.00000
      2      -6.4819      2.00000
      3      -6.3450      2.00000
      4      -4.8661      2.00000
      5       3.4574      0.00000
      6       5.9909      0.00000
      7       7.8544      0.00000
      8       8.8924      0.00000
      9       9.3123      0.00000
     10      12.5620      0.00000
     11      13.8890      0.00000
     12      17.3046      0.00000
     13      21.4438      0.00000
     14      21.4603      0.00000
     15      22.3841      0.00000
     16      23.5009      0.00000
     17      25.1702      0.00000
     18      26.7818      0.00000
     19      27.8234      0.00000
     20      28.2419      0.00000

 k-point    10 :       0.2368    0.0000    0.0000
  band No.  band energies     occupation 
      1     -18.8342      2.00000
      2      -7.0545      2.00000
      3      -6.0611      2.00000
      4      -5.0942      2.00000
      5       3.8165      0.00000
      6       6.0017      0.00000
      7       7.9501      0.00000
      8       8.6561      0.00000
      9       9.5091      0.00000
     10      13.3025      0.00000
     11      14.2717      0.00000
     12      17.2274      0.00000
     13      20.6484      0.00000
     14      20.9251      0.00000
     15      22.3220      0.00000
     16      23.0593      0.00000
     17      25.0942      0.00000
     18      25.8582      0.00000
     19      27.1101      0.00000
     20      27.7883      0.00000

 k-point    11 :       0.2632    0.0000    0.0000
  band No.  band energies     occupation 
      1     -18.6072      2.00000
      2      -7.6310      2.00000
      3      -5.7507      2.00000
      4      -5.3138      2.00000
      5       4.2136      0.00000
      6       5.8595      0.00000
      7       8.0001      0.00000
      8       8.5795      0.00000
      9       9.7907      0.00000
     10      14.0766      0.00000
     11      14.6153      0.00000
     12      17.0721      0.00000
     13      19.6333      0.00000
     14      20.5094      0.00000
     15      22.4782      0.00000
     16      22.6574      0.00000
     17      24.7246      0.00000
     18      24.9995      0.00000
     19      26.7643      0.00000
     20      27.3779      0.00000

 k-point    12 :       0.2895    0.0000    0.0000
  band No.  band energies     occupation 
      1     -18.3651      2.00000
      2      -8.2012      2.00000
      3      -5.5205      2.00000
      4      -5.4174      2.00000
      5       4.6470      0.00000
      6       5.5513      0.00000
      7       8.0192      0.00000
      8       8.6862      0.00000
      9      10.1445      0.00000
     10      14.8674      0.00000
     11      14.8715      0.00000
     12      16.8282      0.00000
     13      18.6764      0.00000
     14      20.1873      0.00000
     15      22.2963      0.00000
     16      22.5283      0.00000
     17      24.2575      0.00000
     18      24.2670      0.00000
     19      26.6657      0.00000
     20      27.0109      0.00000

 k-point    13 :       0.3158    0.0000    0.0000
  band No.  band energies     occupation 
      1     -18.1119      2.00000
      2      -8.7551      2.00000
      3      -5.7102      2.00000
      4      -5.0659      2.00000
      5       5.1132      0.00000
      6       5.1225      0.00000
      7       8.0248      0.00000
      8       8.9420      0.00000
      9      10.5555      0.00000
     10      14.9305      0.00000
     11      15.6708      0.00000
     12      16.5023      0.00000
     13      17.8877      0.00000
     14      19.9053      0.00000
     15      21.9767      0.00000
     16      22.2664      0.00000
     17      23.7153      0.00000
     18      24.0693      0.00000
     19      26.6175      0.00000
     20      26.6876      0.00000

 k-point    14 :       0.3421    0.0000    0.0000
  band No.  band energies     occupation 
      1     -17.8535      2.00000
      2      -9.2823      2.00000
      3      -5.8799      2.00000
      4      -4.7029      2.00000
      5       4.6306      0.00000
      6       5.6058      0.00000
      7       8.0336      0.00000
      8       9.3009      0.00000
      9      11.0109      0.00000
     10      14.6822      0.00000
     11      16.1103      0.00000
     12      16.4570      0.00000
     13      17.3674      0.00000
     14      19.6092      0.00000
     15      21.6990      0.00000
     16      21.7598      0.00000
     17      23.3835      0.00000
     18      24.1922      0.00000
     19      26.4079      0.00000
     20      26.5501      0.00000

 k-point    15 :       0.3684    0.0000    0.0000
  band No.  band energies     occupation 
      1     -17.5975      2.00000
      2      -9.7713      2.00000
      3      -6.0272      2.00000
      4      -4.3379      2.00000
      5       4.1212      0.00000
      6       6.1108      0.00000
      7       8.0658      0.00000
      8       9.7293      0.00000
      9      11.4958      0.00000
     10      14.1237      0.00000
     11      15.6668      0.00000
     12      17.0754      0.00000
     13      17.2079      0.00000
     14      19.2820      0.00000
     15      21.2513      0.00000
     16      21.4636      0.00000
     17      23.2708      0.00000
     18      24.4397      0.00000
     19      26.1722      0.00000
     20      26.4627      0.00000

 k-point    16 :       0.3947    0.0000    0.0000
  band No.  band energies     occupation 
      1     -17.3544      2.00000
      2     -10.2087      2.00000
      3      -6.1500      2.00000
      4      -3.9847      2.00000
      5       3.6298      0.00000
      6       6.5960      0.00000
      7       8.1562      0.00000
      8      10.2047      0.00000
      9      11.9723      0.00000
     10      13.4281      0.00000
     11      15.1830      0.00000
     12      16.8219      0.00000
     13      17.8970      0.00000
     14      18.9503      0.00000
     15      20.8760      0.00000
     16      21.2708      0.00000
     17      23.3324      0.00000
     18      24.7099      0.00000
     19      25.9805      0.00000
     20      26.3710      0.00000

 k-point    17 :       0.4211    0.0000    0.0000
  band No.  band energies     occupation 
      1     -17.1377      2.00000
      2     -10.5788      2.00000
      3      -6.2470      2.00000
      4      -3.6625      2.00000
      5       3.1895      0.00000
      6       6.9950      0.00000
      7       8.3716      0.00000
      8      10.7069      0.00000
      9      12.1506      0.00000
     10      12.9934      0.00000
     11      14.6728      0.00000
     12      16.4757      0.00000
     13      18.4910      0.00000
     14      18.6555      0.00000
     15      20.6718      0.00000
     16      21.1206      0.00000
     17      23.5037      0.00000
     18      24.9516      0.00000
     19      25.8321      0.00000
     20      26.2874      0.00000

 k-point    18 :       0.4474    0.0000    0.0000
  band No.  band energies     occupation 
      1     -16.9637      2.00000
      2     -10.8635      2.00000
      3      -6.3171      2.00000
      4      -3.3970      2.00000
      5       2.8347      0.00000
      6       7.2406      0.00000
      7       8.7764      0.00000
      8      11.2080      0.00000
      9      11.5614      0.00000
     10      13.3295      0.00000
     11      14.1628      0.00000
     12      16.0292      0.00000
     13      18.4293      0.00000
     14      18.9540      0.00000
     15      20.6015      0.00000
     16      21.0133      0.00000
     17      23.7157      0.00000
     18      25.1337      0.00000
     19      25.7272      0.00000
     20      26.2212      0.00000

 k-point    19 :       0.4737    0.0000    0.0000
  band No.  band energies     occupation 
      1     -16.8498      2.00000
      2     -11.0442      2.00000
      3      -6.3594      2.00000
      4      -3.2191      2.00000
      5       2.6012      0.00000
      6       7.3508      0.00000
      7       9.3407      0.00000
      8      10.8201      0.00000
      9      11.6436      0.00000
     10      13.7196      0.00000
     11      13.8047      0.00000
     12      15.5641      0.00000
     13      18.2889      0.00000
     14      19.2499      0.00000
     15      20.5967      0.00000
     16      20.9489      0.00000
     17      23.8942      0.00000
     18      25.2422      0.00000
     19      25.6651      0.00000
     20      26.1781      0.00000

 k-point    20 :       0.5000    0.0000    0.0000
  band No.  band energies     occupation 
      1     -16.8100      2.00000
      2     -11.1063      2.00000
      3      -6.3735      2.00000
      4      -3.1559      2.00000
      5       2.5193      0.00000
      6       7.3806      0.00000
      7       9.8457      0.00000
      8      10.2573      0.00000
      9      11.8439      0.00000
     10      13.5164      0.00000
     11      14.0591      0.00000
     12      15.3142      0.00000
     13      18.2415      0.00000
     14      19.3523      0.00000
     15      20.6015      0.00000
     16      20.9274      0.00000
     17      23.9654      0.00000
     18      25.2775      0.00000
     19      25.6472      0.00000
     20      26.1797      0.00000

 k-point    21 :       0.5000    0.0000    0.0000
  band No.  band energies     occupation 
      1     -16.8100      2.00000
      2     -11.1063      2.00000
      3      -6.3735      2.00000
      4      -3.1559      2.00000
      5       2.5193      0.00000
      6       7.3806      0.00000
      7       9.8457      0.00000
      8      10.2573      0.00000
      9      11.8439      0.00000
     10      13.5164      0.00000
     11      14.0591      0.00000
     12      15.3142      0.00000
     13      18.2415      0.00000
     14      19.3523      0.00000
     15      20.6015      0.00000
     16      20.9274      0.00000
     17      23.9665      0.00000
     18      25.2788      0.00000
     19      25.6446      0.00000
     20      26.1672      0.00000

 k-point    22 :       0.4895    0.0158    0.0000
  band No.  band energies     occupation 
      1     -16.8080      2.00000
      2     -11.1028      2.00000
      3      -6.3882      2.00000
      4      -3.1531      2.00000
      5       2.5209      0.00000
      6       7.4007      0.00000
      7       9.8391      0.00000
      8      10.2768      0.00000
      9      11.8379      0.00000
     10      13.5206      0.00000
     11      14.0580      0.00000
     12      15.3220      0.00000
     13      18.1838      0.00000
     14      19.3318      0.00000
     15      20.6123      0.00000
     16      20.9812      0.00000
     17      23.9816      0.00000
     18      25.0195      0.00000
     19      25.4502      0.00000
     20      26.6093      0.00000

 k-point    23 :       0.4789    0.0316    0.0000
  band No.  band energies     occupation 
      1     -16.8021      2.00000
      2     -11.0922      2.00000
      3      -6.4318      2.00000
      4      -3.1444      2.00000
      5       2.5258      0.00000
      6       7.4604      0.00000
      7       9.8238      0.00000
      8      10.3313      0.00000
      9      11.8201      0.00000
     10      13.5329      0.00000
     11      14.0550      0.00000
     12      15.3452      0.00000
     13      18.0281      0.00000
     14      19.2731      0.00000
     15      20.6418      0.00000
     16      21.1236      0.00000
     17      24.0307      0.00000
     18      24.4117      0.00000
     19      25.3906      0.00000
     20      26.9583      0.00000

 k-point    24 :       0.4684    0.0474    0.0000
  band No.  band energies     occupation 
      1     -16.7923      2.00000
      2     -11.0746      2.00000
      3      -6.5032      2.00000
      4      -3.1302      2.00000
      5       2.5338      0.00000
      6       7.5579      0.00000
      7       9.8082      0.00000
      8      10.4127      0.00000
      9      11.7900      0.00000
     10      13.5526      0.00000
     11      14.0510      0.00000
     12      15.3826      0.00000
     13      17.8108      0.00000
     14      19.1821      0.00000
     15      20.6834      0.00000
     16      21.3128      0.00000
     17      23.7630      0.00000
     18      24.1134      0.00000
     19      25.3481      0.00000
     20      26.8665      0.00000

 k-point    25 :       0.4579    0.0632    0.0000
  band No.  band energies     occupation 
      1     -16.7787      2.00000
      2     -11.0500      2.00000
      3      -6.6008      2.00000
      4      -3.1103      2.00000
      5       2.5444      0.00000
      6       7.6905      0.00000
      7       9.7990      0.00000
      8      10.5149      0.00000
      9      11.7472      0.00000
     10      13.5783      0.00000
     11      14.0468      0.00000
     12      15.4327      0.00000
     13      17.5671      0.00000
     14      19.0654      0.00000
     15      20.7281      0.00000
     16      21.5071      0.00000
     17      23.1177      0.00000
     18      24.2284      0.00000
     19      25.2981      0.00000
     20      26.7227      0.00000

 k-point    26 :       0.4474    0.0789    0.0000
  band No.  band energies     occupation 
      1     -16.7615      2.00000
      2     -11.0185      2.00000
      3      -6.7222      2.00000
      4      -3.0851      2.00000
      5       2.5573      0.00000
      6       7.8542      0.00000
      7       9.8012      0.00000
      8      10.6340      0.00000
      9      11.6911      0.00000
     10      13.6085      0.00000
     11      14.0433      0.00000
     12      15.4932      0.00000
     13      17.3227      0.00000
     14      18.9278      0.00000
     15      20.7680      0.00000
     16      21.6738      0.00000
     17      22.4861      0.00000
     18      24.3670      0.00000
     19      25.2390      0.00000
     20      26.5220      0.00000

 k-point    27 :       0.4368    0.0947    0.0000
  band No.  band energies     occupation 
      1     -16.7407      2.00000
      2     -10.9803      2.00000
      3      -6.8648      2.00000
      4      -3.0547      2.00000
      5       2.5718      0.00000
      6       8.0438      0.00000
      7       9.8189      0.00000
      8      10.7679      0.00000
      9      11.6212      0.00000
     10      13.6417      0.00000
     11      14.0421      0.00000
     12      15.5617      0.00000
     13      17.0958      0.00000
     14      18.7731      0.00000
     15      20.7956      0.00000
     16      21.7905      0.00000
     17      21.8757      0.00000
     18      24.5069      0.00000
     19      25.1717      0.00000
     20      26.2985      0.00000

 k-point    28 :       0.4263    0.1105    0.0000
  band No.  band energies     occupation 
      1     -16.7168      2.00000
      2     -10.9355      2.00000
      3      -7.0258      2.00000
      4      -3.0194      2.00000
      5       2.5873      0.00000
      6       8.2522      0.00000
      7       9.8563      0.00000
      8      10.9153      0.00000
      9      11.5370      0.00000
     10      13.6764      0.00000
     11      14.0441      0.00000
     12      15.6353      0.00000
     13      16.8985      0.00000
     14      18.6020      0.00000
     15      20.7925      0.00000
     16      21.3053      0.00000
     17      21.8433      0.00000
     18      24.6068      0.00000
     19      25.0950      0.00000
     20      26.1243      0.00000

 k-point    29 :       0.4158    0.1263    0.0000
  band No.  band energies     occupation 
      1     -16.6898      2.00000
      2     -10.8843      2.00000
      3      -7.2018      2.00000
      4      -2.9795      2.00000
      5       2.6028      0.00000
      6       8.4711      0.00000
      7       9.9181      0.00000
      8      11.0753      0.00000
      9      11.4387      0.00000
     10      13.7117      0.00000
     11      14.0502      0.00000
     12      15.7106      0.00000
     13      16.7390      0.00000
     14      18.4135      0.00000
     15      20.6033      0.00000
     16      20.9343      0.00000
     17      21.8235      0.00000
     18      24.6216      0.00000
     19      24.9977      0.00000
     20      25.8378      0.00000

 k-point    30 :       0.4053    0.1421    0.0000
  band No.  band energies     occupation 
      1     -16.6603      2.00000
      2     -10.8271      2.00000
      3      -7.3898      2.00000
      4      -2.9354      2.00000
      5       2.6174      0.00000
      6       8.6899      0.00000
      7      10.0106      0.00000
      8      11.2471      0.00000
      9      11.3274      0.00000
     10      13.7475      0.00000
     11      14.0614      0.00000
     12      15.7836      0.00000
     13      16.6216      0.00000
     14      18.2033      0.00000
     15      20.1302      0.00000
     16      20.8693      0.00000
     17      21.7266      0.00000
     18      24.5527      0.00000
     19      24.8310      0.00000
     20      25.4449      0.00000

 k-point    31 :       0.3947    0.1579    0.0000
  band No.  band energies     occupation 
      1     -16.6284      2.00000
      2     -10.7641      2.00000
      3      -7.5865      2.00000
      4      -2.8876      2.00000
      5       2.6302      0.00000
      6       8.8974      0.00000
      7      10.1398      0.00000
      8      11.2051      0.00000
      9      11.4301      0.00000
     10      13.7844      0.00000
     11      14.0784      0.00000
     12      15.8495      0.00000
     13      16.5471      0.00000
     14      17.9635      0.00000
     15      19.6609      0.00000
     16      20.8373      0.00000
     17      21.5534      0.00000
     18      24.4519      0.00000
     19      24.5098      0.00000
     20      25.2225      0.00000

 k-point    32 :       0.3842    0.1737    0.0000
  band No.  band energies     occupation 
      1     -16.5948      2.00000
      2     -10.6961      2.00000
      3      -7.7885      2.00000
      4      -2.8369      2.00000
      5       2.6401      0.00000
      6       9.0846      0.00000
      7      10.3090      0.00000
      8      11.0752      0.00000
      9      11.6234      0.00000
     10      13.8238      0.00000
     11      14.1021      0.00000
     12      15.9027      0.00000
     13      16.5134      0.00000
     14      17.6847      0.00000
     15      19.2503      0.00000
     16      20.8028      0.00000
     17      21.3123      0.00000
     18      24.0782      0.00000
     19      24.3638      0.00000
     20      25.1326      0.00000

 k-point    33 :       0.3737    0.1895    0.0000
  band No.  band energies     occupation 
      1     -16.5600      2.00000
      2     -10.6237      2.00000
      3      -7.9924      2.00000
      4      -2.7838      2.00000
      5       2.6461      0.00000
      6       9.2482      0.00000
      7      10.5147      0.00000
      8      10.9419      0.00000
      9      11.8260      0.00000
     10      13.8673      0.00000
     11      14.1333      0.00000
     12      15.9367      0.00000
     13      16.5158      0.00000
     14      17.3614      0.00000
     15      18.9162      0.00000
     16      20.7658      0.00000
     17      21.0190      0.00000
     18      23.6182      0.00000
     19      24.3060      0.00000
     20      25.0967      0.00000

 k-point    34 :       0.3632    0.2053    0.0000
  band No.  band energies     occupation 
      1     -16.5245      2.00000
      2     -10.5479      2.00000
      3      -8.1948      2.00000
      4      -2.7293      2.00000
      5       2.6473      0.00000
      6       9.3912      0.00000
      7      10.7459      0.00000
      8      10.8101      0.00000
      9      12.0360      0.00000
     10      13.9166      0.00000
     11      14.1725      0.00000
     12      15.9440      0.00000
     13      16.5475      0.00000
     14      17.0019      0.00000
     15      18.6615      0.00000
     16      20.6925      0.00000
     17      20.7314      0.00000
     18      23.1608      0.00000
     19      24.2795      0.00000
     20      25.0864      0.00000

 k-point    35 :       0.3526    0.2211    0.0000
  band No.  band energies     occupation 
      1     -16.4892      2.00000
      2     -10.4705      2.00000
      3      -8.3914      2.00000
      4      -2.6743      2.00000
      5       2.6430      0.00000
      6       9.5198      0.00000
      7      10.6851      0.00000
      8      10.9869      0.00000
      9      12.2503      0.00000
     10      13.9728      0.00000
     11      14.2197      0.00000
     12      15.9148      0.00000
     13      16.6001      0.00000
     14      16.6312      0.00000
     15      18.4758      0.00000
     16      20.3522      0.00000
     17      20.7054      0.00000
     18      22.7181      0.00000
     19      24.2790      0.00000
     20      25.0910      0.00000

 k-point    36 :       0.3421    0.2368    0.0000
  band No.  band energies     occupation 
      1     -16.4548      2.00000
      2     -10.3938      2.00000
      3      -8.5776      2.00000
      4      -2.6202      2.00000
      5       2.6330      0.00000
      6       9.6402      0.00000
      7      10.5717      0.00000
      8      11.2208      0.00000
      9      12.4639      0.00000
     10      14.0364      0.00000
     11      14.2735      0.00000
     12      15.8283      0.00000
     13      16.2957      0.00000
     14      16.6632      0.00000
     15      18.3432      0.00000
     16      20.0168      0.00000
     17      20.6945      0.00000
     18      22.2982      0.00000
     19      24.2980      0.00000
     20      25.1045      0.00000

 k-point    37 :       0.3316    0.2526    0.0000
  band No.  band energies     occupation 
      1     -16.4221      2.00000
      2     -10.3217      2.00000
      3      -8.7475      2.00000
      4      -2.5682      2.00000
      5       2.6173      0.00000
      6       9.7568      0.00000
      7      10.4743      0.00000
      8      11.4306      0.00000
      9      12.6677      0.00000
     10      14.1073      0.00000
     11      14.3283      0.00000
     12      15.6476      0.00000
     13      16.0663      0.00000
     14      16.7234      0.00000
     15      18.2475      0.00000
     16      19.7055      0.00000
     17      20.7046      0.00000
     18      21.9082      0.00000
     19      24.3308      0.00000
     20      25.1225      0.00000

 k-point    38 :       0.3211    0.2684    0.0000
  band No.  band energies     occupation 
[...]
     14      17.6987      0.00000
     15      18.4402      0.00000
     16      18.5898      0.00000
     17      21.8042      0.00000
     18      22.7028      0.00000
     19      25.1753      0.00000
     20      26.1276      0.00000

 k-point   125 :       0.2368    0.2368    0.5000
  band No.  band energies     occupation 
      1     -17.1428      2.00000
      2      -9.5958      2.00000
      3      -7.8234      2.00000
      4      -3.6875      2.00000
      5       3.7700      0.00000
      6       8.1598      0.00000
      7       8.3342      0.00000
      8      11.4102      0.00000
      9      12.4153      0.00000
     10      12.6007      0.00000
     11      16.1022      0.00000
     12      17.0459      0.00000
     13      17.4159      0.00000
     14      17.5810      0.00000
     15      18.8732      0.00000
     16      19.0093      0.00000
     17      21.5842      0.00000
     18      23.1779      0.00000
     19      25.4867      0.00000
     20      26.6186      0.00000

 k-point   126 :       0.2211    0.2211    0.5000
  band No.  band energies     occupation 
      1     -17.4154      2.00000
      2      -9.2623      2.00000
      3      -7.4638      2.00000
      4      -4.0852      2.00000
      5       4.1996      0.00000
      6       7.5499      0.00000
      7       7.7659      0.00000
      8      11.1149      0.00000
      9      12.3092      0.00000
     10      12.7121      0.00000
     11      16.0488      0.00000
     12      16.8629      0.00000
     13      17.8062      0.00000
     14      18.1259      0.00000
     15      19.5141      0.00000
     16      19.5474      0.00000
     17      21.3770      0.00000
     18      23.6418      0.00000
     19      25.8841      0.00000
     20      27.0329      0.00000

 k-point   127 :       0.2053    0.2053    0.5000
  band No.  band energies     occupation 
      1     -17.6960      2.00000
      2      -8.8751      2.00000
      3      -7.0931      2.00000
      4      -4.4865      2.00000
      5       4.6262      0.00000
      6       6.9712      0.00000
      7       7.2583      0.00000
      8      10.7988      0.00000
      9      12.0445      0.00000
     10      12.8971      0.00000
     11      16.1302      0.00000
     12      16.4081      0.00000
     13      18.0323      0.00000
     14      18.8988      0.00000
     15      20.1570      0.00000
     16      20.2691      0.00000
     17      21.3381      0.00000
     18      24.0770      0.00000
     19      26.2870      0.00000
     20      27.2905      0.00000

 k-point   128 :       0.1895    0.1895    0.5000
  band No.  band energies     occupation 
      1     -17.9761      2.00000
      2      -8.4438      2.00000
      3      -6.7151      2.00000
      4      -4.8810      2.00000
      5       4.9842      0.00000
      6       6.4279      0.00000
      7       6.8740      0.00000
      8      10.4839      0.00000
      9      11.7972      0.00000
     10      12.9204      0.00000
     11      15.8796      0.00000
     12      16.4444      0.00000
     13      17.9766      0.00000
     14      19.7102      0.00000
     15      20.8303      0.00000
     16      21.0986      0.00000
     17      21.6056      0.00000
     18      24.4708      0.00000
     19      26.6296      0.00000
     20      27.3642      0.00000

 k-point   129 :       0.1737    0.1737    0.5000
  band No.  band energies     occupation 
      1     -18.2492      2.00000
      2      -7.9773      2.00000
      3      -6.3341      2.00000
      4      -5.2609      2.00000
      5       5.1382      0.00000
      6       5.9226      0.00000
      7       6.7398      0.00000
      8      10.1864      0.00000
      9      11.5595      0.00000
     10      12.8120      0.00000
     11      15.3020      0.00000
     12      16.9790      0.00000
     13      17.6703      0.00000
     14      20.5442      0.00000
     15      21.5713      0.00000
     16      21.9830      0.00000
     17      22.1436      0.00000
     18      24.8225      0.00000
     19      26.8743      0.00000
     20      27.3119      0.00000

 k-point   130 :       0.1579    0.1579    0.5000
  band No.  band energies     occupation 
      1     -18.5098      2.00000
      2      -7.4841      2.00000
      3      -5.9548      2.00000
      4      -5.6203      2.00000
      5       5.0073      0.00000
      6       5.4568      0.00000
      7       6.9249      0.00000
      8       9.9183      0.00000
      9      11.3284      0.00000
     10      12.6392      0.00000
     11      14.6803      0.00000
     12      17.2455      0.00000
     13      17.6749      0.00000
     14      21.3818      0.00000
     15      22.3563      0.00000
     16      22.8434      0.00000
     17      22.9062      0.00000
     18      25.1504      0.00000
     19      27.0185      0.00000
     20      27.2144      0.00000

 k-point   131 :       0.1421    0.1421    0.5000
  band No.  band energies     occupation 
      1     -18.7541      2.00000
      2      -6.9728      2.00000
      3      -5.9546      2.00000
      4      -5.5828      2.00000
      5       4.7242      0.00000
      6       5.0317      0.00000
      7       7.2819      0.00000
      8       9.6866      0.00000
      9      11.1024      0.00000
     10      12.4582      0.00000
     11      14.0196      0.00000
     12      16.7960      0.00000
     13      18.4800      0.00000
     14      22.1949      0.00000
     15      23.1064      0.00000
     16      23.6588      0.00000
     17      23.8403      0.00000
     18      25.4961      0.00000
     19      27.1052      0.00000
     20      27.1448      0.00000

 k-point   132 :       0.1263    0.1263    0.5000
  band No.  band energies     occupation 
      1     -18.9786      2.00000
      2      -6.4523      2.00000
      3      -6.2604      2.00000
      4      -5.2241      2.00000
      5       4.4078      0.00000
      6       4.6478      0.00000
      7       7.6747      0.00000
      8       9.4960      0.00000
      9      10.8812      0.00000
     10      12.3056      0.00000
     11      13.3328      0.00000
     12      16.3671      0.00000
     13      19.3586      0.00000
     14      22.9446      0.00000
     15      23.6986      0.00000
     16      24.5849      0.00000
     17      24.7085      0.00000
     18      25.9407      0.00000
     19      27.1879      0.00000
     20      27.2419      0.00000

 k-point   133 :       0.1105    0.1105    0.5000
  band No.  band energies     occupation 
      1     -19.1811      2.00000
      2      -6.5351      2.00000
      3      -5.9327      2.00000
      4      -4.8851      2.00000
      5       4.1040      0.00000
      6       4.3055      0.00000
      7       8.0394      0.00000
      8       9.3489      0.00000
      9      10.6644      0.00000
     10      12.2049      0.00000
     11      12.6418      0.00000
     12      15.9766      0.00000
     13      20.2811      0.00000
     14      23.5935      0.00000
     15      24.0226      0.00000
     16      25.3366      0.00000
     17      25.5968      0.00000
     18      26.6225      0.00000
     19      27.4586      0.00000
     20      27.5767      0.00000

 k-point   134 :       0.0947    0.0947    0.5000
  band No.  band energies     occupation 
      1     -19.3597      2.00000
      2      -6.7764      2.00000
      3      -5.4260      2.00000
      4      -4.5726      2.00000
      5       3.8297      0.00000
      6       4.0051      0.00000
      7       8.3429      0.00000
      8       9.2460      0.00000
      9      10.4497      0.00000
     10      11.9743      0.00000
     11      12.1685      0.00000
     12      15.6291      0.00000
     13      21.2127      0.00000
     14      24.0576      0.00000
     15      24.1377      0.00000
     16      25.6748      0.00000
     17      26.6637      0.00000
     18      27.5441      0.00000
     19      28.0365      0.00000
     20      28.1850      0.00000

 k-point   135 :       0.0789    0.0789    0.5000
  band No.  band energies     occupation 
      1     -19.5128      2.00000
      2      -6.9829      2.00000
      3      -4.9460      2.00000
      4      -4.2936      2.00000
      5       3.5924      0.00000
      6       3.7471      0.00000
      7       8.5715      0.00000
      8       9.1860      0.00000
      9      10.2315      0.00000
     10      11.3637      0.00000
     11      12.1961      0.00000
     12      15.3254      0.00000
     13      22.0968      0.00000
     14      23.9013      0.00000
     15      24.6289      0.00000
     16      25.8995      0.00000
     17      27.7389      0.00000
     18      28.5007      0.00000
     19      28.8809      0.00000
     20      28.9605      0.00000

 k-point   136 :       0.0632    0.0632    0.5000
  band No.  band energies     occupation 
      1     -19.6394      2.00000
      2      -7.1534      2.00000
      3      -4.5101      2.00000
      4      -4.0549      2.00000
      5       3.3955      0.00000
      6       3.5319      0.00000
      7       8.7259      0.00000
      8       9.1650      0.00000
      9       9.9985      0.00000
     10      10.8491      0.00000
     11      12.2724      0.00000
     12      15.0671      0.00000
     13      22.8386      0.00000
     14      23.6688      0.00000
     15      25.1647      0.00000
     16      26.1480      0.00000
     17      28.5621      0.00000
     18      29.1655      0.00000
     19      29.4729      0.00000
     20      29.9046      0.00000

 k-point   137 :       0.0474    0.0474    0.5000
  band No.  band energies     occupation 
      1     -19.7387      2.00000
      2      -7.2868      2.00000
      3      -4.1378      2.00000
      4      -3.8622      2.00000
      5       3.2411      0.00000
      6       3.3609      0.00000
      7       8.8201      0.00000
      8       9.1759      0.00000
      9       9.7441      0.00000
     10      10.4666      0.00000
     11      12.3721      0.00000
     12      14.8575      0.00000
     13      23.3430      0.00000
     14      23.4361      0.00000
     15      25.8291      0.00000
     16      26.4712      0.00000
     17      28.7059      0.00000
     18      29.4176      0.00000
     19      30.4416      0.00000
     20      31.0444      0.00000

 k-point   138 :       0.0316    0.0316    0.5000
  band No.  band energies     occupation 
      1     -19.8100      2.00000
      2      -7.3825      2.00000
      3      -3.8503      2.00000
      4      -3.7208      2.00000
      5       3.1302      0.00000
      6       3.2359      0.00000
      7       8.8714      0.00000
      8       9.2074      0.00000
      9       9.4981      0.00000
     10      10.2174      0.00000
     11      12.4669      0.00000
     12      14.7018      0.00000
     13      23.2468      0.00000
     14      23.6169      0.00000
     15      26.5627      0.00000
     16      26.8524      0.00000
     17      28.6783      0.00000
     18      29.6096      0.00000
     19      31.1973      0.00000
     20      31.6503      0.00000

 k-point   139 :       0.0158    0.0158    0.5000
  band No.  band energies     occupation 
      1     -19.8530      2.00000
      2      -7.4402      2.00000
      3      -3.6679      2.00000
      4      -3.6343      2.00000
      5       3.0635      0.00000
      6       3.1594      0.00000
      7       8.8956      0.00000
      8       9.2416      0.00000
      9       9.3208      0.00000
     10      10.0745      0.00000
     11      12.5336      0.00000
     12      14.6054      0.00000
     13      23.1251      0.00000
     14      23.7412      0.00000
     15      27.1485      0.00000
     16      27.2071      0.00000
     17      28.6467      0.00000
     18      29.9760      0.00000
     19      30.5933      0.00000
     20      32.2596      0.00000

 k-point   140 :       0.0000    0.0000    0.5000
  band No.  band energies     occupation 
      1     -19.8673      2.00000
      2      -7.4594      2.00000
      3      -3.6052      2.00000
      4      -3.6052      2.00000
      5       3.0412      0.00000
      6       3.1336      0.00000
      7       8.9025      0.00000
      8       9.2570      0.00000
      9       9.2570      0.00000
     10      10.0265      0.00000
     11      12.5575      0.00000
     12      14.5727      0.00000
     13      23.0832      0.00000
     14      23.7763      0.00000
     15      27.3665      0.00000
     16      27.3665      0.00000
     17      28.6347      0.00000
     18      30.3486      0.00000
     19      30.3487      0.00000
     20      31.5769      0.00000


--------------------------------------------------------------------------------------------------------


 soft charge-density along one line, spin component           1
         0         1         2         3         4         5         6         7         8         9
 total charge-density along one line
 
 pseudopotential strength for first ion, spin component:           1
  6.670  10.172  -0.000   0.000   0.000  -0.000   0.000   0.000
 10.172  15.510  -0.000   0.000   0.000  -0.000   0.000   0.000
 -0.000  -0.000  -2.286  -0.000  -0.000  -3.918  -0.000  -0.000
  0.000   0.000  -0.000  -2.284  -0.000  -0.000  -3.911  -0.000
  0.000   0.000  -0.000  -0.000  -2.286  -0.000  -0.000  -3.918
 -0.000  -0.000  -3.918  -0.000  -0.000  -6.515  -0.000  -0.000
  0.000   0.000  -0.000  -3.911  -0.000  -0.000  -6.497  -0.000
  0.000   0.000  -0.000  -0.000  -3.918  -0.000  -0.000  -6.515
 total augmentation occupancy for first ion, spin component:           1
  2.000   0.000   0.000   0.000   0.000   0.000   0.000   0.000
  0.000   0.000   0.000   0.000   0.000   0.000   0.000   0.000
  0.000   0.000   0.333   0.000   0.000   0.000   0.000   0.000
  0.000   0.000   0.000   0.333   0.000   0.000   0.000   0.000
  0.000   0.000   0.000   0.000   0.333   0.000   0.000   0.000
  0.000   0.000   0.000   0.000   0.000   0.000   0.000   0.000
  0.000   0.000   0.000   0.000   0.000   0.000   0.000   0.000
  0.000   0.000   0.000   0.000   0.000   0.000   0.000   0.000


------------------------ aborting loop because EDIFF is reached ----------------------------------------


 


 total charge     
 
# of ion       s       p       d       tot
------------------------------------------
    1        0.696   1.408   0.000   2.104
    2        1.179   2.898   0.000   4.076
--------------------------------------------------
tot          1.874   4.306   0.000   6.180
 
    CHARGE:  cpu time    0.0127: real time    0.0128
    FORLOC:  cpu time    0.0002: real time    0.0002
    FORNL :  cpu time    0.0199: real time    0.0201
    STRESS:  cpu time    0.3247: real time    0.3272
    FORCOR:  cpu time    0.0019: real time    0.0019
    FORHAR:  cpu time    0.0006: real time    0.0006
    OFIELD:  cpu time    0.0000: real time    0.0000

  FORCE on cell =-STRESS in cart. coord.  units (eV):
  Direction    XX          YY          ZZ          XY          YZ          ZX
  --------------------------------------------------------------------------------------
  Alpha Z     8.64846     8.64846     8.64846
  Ewald     392.78745   392.78745  -664.34157    -0.00000     0.00000    -0.00000
  Hartree   408.25956   408.25956  -377.66957    -0.00000    -0.00000     0.00000
  E(xc)     -31.53773   -31.53773   -32.47645    -0.00000     0.00000     0.00000
  Local    -892.23144  -892.23095   938.32610     0.00000    -0.00000    -0.00006
  n-local   -17.72909   -17.30005   -16.34165     0.05855    -0.00000     0.00000
  augment     1.20062     1.20055     1.23470     0.00000     0.00000    -0.00000
  Kinetic   133.18766   131.60592   144.52210     0.52502     0.00000     0.00000
  Fock        0.00000     0.00000     0.00000     0.00000     0.00000     0.00000
  -------------------------------------------------------------------------------------
  Total       2.00935     2.00935     1.90211    -0.00000     0.00000     0.00000
  in kB      78.24234    78.24234    74.06653    -0.00000     0.00000     0.00000
  external pressure =       76.85 kB  Pullay stress =        0.00 kB


 VOLUME and BASIS-vectors are now :
 -----------------------------------------------------------------------------
  energy-cutoff  :      500.00
  volume of cell :       41.15
      direct lattice vectors                 reciprocal lattice vectors
     1.256237318 -2.175866861  0.000000000     0.398013968 -0.229793472  0.000000000
     1.256237318  2.175866861  0.000000000     0.398013968  0.229793472  0.000000000
     0.000000000  0.000000000  7.526459174     0.000000000  0.000000000  0.132864602

  length of vectors
     2.512474636  2.512474636  7.526459174     0.459586943  0.459586943  0.132864602


 FORCES acting on ions
    electron-ion (+dipol)            ewald-force                    non-local-force                 convergence-correction
 -----------------------------------------------------------------------------------------------
   0.184E-13 -.181E-04 -.247E-14   0.462E-14 -.651E-11 0.610E-19   0.000E+00 0.000E+00 0.000E+00   0.656E-14 0.297E-04 0.210E-12
   -.173E-13 -.112E-05 -.125E-11   -.366E-14 0.651E-11 -.610E-19   -.104E-16 0.486E-16 0.000E+00   -.751E-13 -.307E-03 0.576E-12
 -----------------------------------------------------------------------------------------------
   0.101E-14 -.192E-04 -.125E-11   0.955E-15 0.101E-14 0.000E+00   -.104E-16 0.486E-16 0.000E+00   -.685E-13 -.277E-03 0.786E-12
 
 
 POSITION                                       TOTAL-FORCE (eV/Angst)
 -----------------------------------------------------------------------------------
      0.00000      0.00000      0.00000        -0.000000      0.000000      0.000000
      1.25624      0.72529      0.00000         0.000000     -0.000000      0.000000
 -----------------------------------------------------------------------------------
    total drift:                               -0.000000     -0.000296     -0.000000


--------------------------------------------------------------------------------------------------------



  FREE ENERGIE OF THE ION-ELECTRON SYSTEM (eV)
  ---------------------------------------------------
  free  energy   TOTEN  =       -16.10205842 eV

  energy  without entropy=      -16.10205842  energy(sigma->0) =      -16.10205842
 


--------------------------------------------------------------------------------------------------------


    POTLOK:  cpu time    0.0045: real time    0.0046


--------------------------------------------------------------------------------------------------------


 writing wavefunctions
     LOOP+:  cpu time    3.2809: real time    3.3250
    4ORBIT:  cpu time    0.0000: real time    0.0000
 


 total charge     
 
# of ion       s       p       d       tot
------------------------------------------
    1        0.696   1.408   0.000   2.104
    2        1.179   2.898   0.000   4.076
--------------------------------------------------
tot          1.874   4.306   0.000   6.180
 

 total amount of memory used by VASP MPI-rank0    53019. kBytes
=======================================================================

   base      :      30000. kBytes
   nonl-proj :      19388. kBytes
   fftplans  :        561. kBytes
   grid      :        600. kBytes
   one-center:          6. kBytes
   wavefun   :       2464. kBytes
 
  
  
 General timing and accounting informations for this job:
 ========================================================
  
                  Total CPU time used (sec):        4.146
                            User time (sec):        3.683
                          System time (sec):        0.463
                         Elapsed time (sec):        4.444
  
                   Maximum memory used (kb):       95080.
                   Average memory used (kb):           0.
  
                          Minor page faults:        12251
                          Major page faults:            5
                 Voluntary context switches:         3479
