 vasp.5.4.4.18Apr17-6-g9f103f2a35 (build May 10 2019 17:57:18) complex          
  
 executed on             LinuxIFC date 2024.07.16  00:27:03
 running on   20 total cores
 distrk:  each k-point on   20 cores,    1 groups
 distr:  one band on NCORES_PER_BAND=   1 cores,   20 groups


--------------------------------------------------------------------------------------------------------


 INCAR:
 POTCAR:    PAW_PBE B 06Sep2000                   
 POTCAR:    PAW_PBE N 08Apr2002                   

 ----------------------------------------------------------------------------- 
|                                                                             |
|           W    W    AA    RRRRR   N    N  II  N    N   GGGG   !!!           |
|           W    W   A  A   R    R  NN   N  II  NN   N  G    G  !!!           |
|           W    W  A    A  R    R  N N  N  II  N N  N  G       !!!           |
|           W WW W  AAAAAA  RRRRR   N  N N  II  N  N N  G  GGG   !            |
|           WW  WW  A    A  R   R   N   NN  II  N   NN  G    G                |
|           W    W  A    A  R    R  N    N  II  N    N   GGGG   !!!           |
|                                                                             |
|      For optimal performance we recommend to set                            |
|        NCORE= 4 - approx SQRT( number of cores)                             |
|      NCORE specifies how many cores store one orbital (NPAR=cpu/NCORE).     |
|      This setting can  greatly improve the performance of VASP for DFT.     |
|      The default,   NCORE=1            might be grossly inefficient         |
|      on modern multi-core architectures or massively parallel machines.     |
|      Do your own testing !!!!                                               |
|      Unfortunately you need to use the default for GW and RPA calculations. |
|      (for HF NCORE is supported but not extensively tested yet)             |
|                                                                             |
 ----------------------------------------------------------------------------- 

 POTCAR:    PAW_PBE B 06Sep2000                   
   SHA256 =  a32ced30f5ae56fd4d10b4325ff17eb3e4e38ee0f4288bc219fb012fddfa6e97 B/
   COPYR  = (c) Copyright 06Sep2000 Georg Kresse                                
   COPYR  = This file is part of the software VASP. Any use, copying, and all ot
   COPYR  = If you do not have a valid VASP license, you may not use, copy or di
   VRHFIN =B: s2p1                                                              
   LEXCH  = PE                                                                  
   EATOM  =    71.1703 eV,    5.2309 Ry                                         
                                                                                
   TITEL  = PAW_PBE B 06Sep2000                                                 
   LULTRA =        F    use ultrasoft PP ?                                      
   IUNSCR =        1    unscreen: 0-lin 1-nonlin 2-no                           
   RPACOR =    1.200    partial core radius                                     
   POMASS =   10.811; ZVAL   =    3.000    mass and valenz                      
   RCORE  =    1.700    outmost cutoff radius                                   
   RWIGS  =    1.710; RWIGS  =    0.905    wigner-seitz radius (au A)           
   ENMAX  =  318.614; ENMIN  =  238.960 eV                                      
   ICORE  =        2    local potential                                         
   LCOR   =        T    correct aug charges                                     
   LPAW   =        T    paw PP                                                  
   EAUG   =  535.514                                                            
   DEXC   =    0.000                                                            
   RMAX   =    1.732    core radius for proj-oper                               
   RAUG   =    1.300    factor for augmentation sphere                          
   RDEP   =    1.757    radius for radial grids                                 
   RDEPT  =    1.436    core radius for aug-charge                              
                                                                                
   Atomic configuration                                                         
    4 entries                                                                   
     n  l   j            E        occ.                                          
     1  0  0.50      -180.5896   2.0000                                         
     2  0  0.50        -9.4431   2.0000                                         
     2  1  0.50        -3.6068   1.0000                                         
     3  2  1.50        -4.0817   0.0000                                         
   Description                                                                  
     l       E           TYP  RCUT    TYP  RCUT                                 
     0     -9.4430752     23  1.500                                             
     0      0.8675899     23  1.500                                             
     1     -3.6067955     23  1.700                                             
     1      6.1086146     23  1.700                                             
     2     -4.0817478      7  1.700                                             
  local pseudopotential read in
  partial core-charges read in
  partial kinetic energy density read in
  atomic valenz-charges read in
  non local Contribution for L=           0  read in
    real space projection operators read in
  non local Contribution for L=           0  read in
    real space projection operators read in
  non local Contribution for L=           1  read in
    real space projection operators read in
  non local Contribution for L=           1  read in
    real space projection operators read in
    PAW grid and wavefunctions read in
 
   number of l-projection  operators is LMAX  =           4
   number of lm-projection operators is LMMAX =           8
 
 POTCAR:    PAW_PBE N 08Apr2002                   
   SHA256 =  e053789ff3a61a86a1b75d8a110fcc91f86041011e7b0817c7c99e4e8a6349d7 N/
   COPYR  = (c) Copyright 08Apr2002 Georg Kresse                                
   COPYR  = This file is part of the software VASP. Any use, copying, and all ot
   COPYR  = If you do not have a valid VASP license, you may not use, copy or di
   VRHFIN =N: s2p3                                                              
   LEXCH  = PE                                                                  
   EATOM  =   264.5486 eV,   19.4438 Ry                                         
                                                                                
   TITEL  = PAW_PBE N 08Apr2002                                                 
   LULTRA =        F    use ultrasoft PP ?                                      
   IUNSCR =        1    unscreen: 0-lin 1-nonlin 2-no                           
   RPACOR =    1.200    partial core radius                                     
   POMASS =   14.001; ZVAL   =    5.000    mass and valenz                      
   RCORE  =    1.500    outmost cutoff radius                                   
   RWIGS  =    1.400; RWIGS  =    0.741    wigner-seitz radius (au A)           
   ENMAX  =  400.000; ENMIN  =  300.000 eV                                      
   ICORE  =        2    local potential                                         
   LCOR   =        T    correct aug charges                                     
   LPAW   =        T    paw PP                                                  
   EAUG   =  627.112                                                            
   DEXC   =    0.000                                                            
   RMAX   =    1.529    core radius for proj-oper                               
   RAUG   =    1.300    factor for augmentation sphere                          
   RDEP   =    1.514    radius for radial grids                                 
   RDEPT  =    1.338    core radius for aug-charge                              
                                                                                
   Atomic configuration                                                         
    4 entries                                                                   
     n  l   j            E        occ.                                          
     1  0  0.50      -384.7179   2.0000                                         
     2  0  0.50       -18.5828   2.0000                                         
     2  1  0.50        -7.0898   3.0000                                         
     3  2  1.50        -6.8029   0.0000                                         
   Description                                                                  
     l       E           TYP  RCUT    TYP  RCUT                                 
     0    -18.5828119     23  1.200                                             
     0    -13.5018863     23  1.200                                             
     1     -7.0897853     23  1.500                                             
     1      9.5240782     23  1.500                                             
     2     -6.8029130      7  1.500                                             
  local pseudopotential read in
  partial core-charges read in
  partial kinetic energy density read in
  atomic valenz-charges read in
  non local Contribution for L=           0  read in
    real space projection operators read in
  non local Contribution for L=           0  read in
    real space projection operators read in
  non local Contribution for L=           1  read in
    real space projection operators read in
  non local Contribution for L=           1  read in
    real space projection operators read in
    PAW grid and wavefunctions read in
 
   number of l-projection  operators is LMAX  =           4
   number of lm-projection operators is LMMAX =           8
 
  PAW_PBE B 06Sep2000                   :
 energy of atom  1       EATOM=  -71.1703
 kinetic energy error for atom=    0.0012 (will be added to EATOM!!)
  PAW_PBE N 08Apr2002                   :
 energy of atom  2       EATOM= -264.5486
 kinetic energy error for atom=    0.0138 (will be added to EATOM!!)
 
 
 POSCAR: B2 N2                                   
  positions in direct lattice
  velocities in cartesian coordinates
 exchange correlation table for  LEXCH =        8
   RHO(1)=    0.500       N(1)  =     2000
   RHO(2)=  100.500       N(2)  =     4000
 


--------------------------------------------------------------------------------------------------------


 ion  position               nearest neighbor table
   1  0.000  0.000  0.000-   2 1.45   2 1.45   2 1.45
   2  0.333  0.667  0.000-   1 1.45   1 1.45   1 1.45
 
  LATTYP: Found a hexagonal cell.
 ALAT       =     2.5124746362
 C/A-ratio  =     2.9956358826
  
  Lattice vectors:
  
 A1 = (   1.2562373181,  -2.1758668613,   0.0000000000)
 A2 = (   1.2562373181,   2.1758668613,   0.0000000000)
 A3 = (   0.0000000000,   0.0000000000,   7.5264591742)


Analysis of symmetry for initial positions (statically):
=====================================================================
 Subroutine PRICEL returns:
 Original cell was already a primitive cell.
 

 Routine SETGRP: Setting up the symmetry group for a 
 hexagonal supercell.


 Subroutine GETGRP returns: Found 12 space group operations
 (whereof 12 operations were pure point group operations)
 out of a pool of 24 trial point group operations.


The static configuration has the point symmetry D_3h.


Analysis of symmetry for dynamics (positions and initial velocities):
=====================================================================
 Subroutine PRICEL returns:
 Original cell was already a primitive cell.
 

 Routine SETGRP: Setting up the symmetry group for a 
 hexagonal supercell.


 Subroutine GETGRP returns: Found 12 space group operations
 (whereof 12 operations were pure point group operations)
 out of a pool of 24 trial point group operations.


The dynamic configuration has the point symmetry D_3h.


 Subroutine INISYM returns: Found 12 space group operations
 (whereof 12 operations are pure point group operations),
 and found     1 'primitive' translations

 
 
 KPOINTS: A                                       

Automatic generation of k-mesh.
Space group operators:
 irot       det(A)        alpha          n_x          n_y          n_z        tau_x        tau_y        tau_z
    1     1.000000     0.000000     1.000000     0.000000     0.000000     0.000000     0.000000     0.000000
    2    -1.000000    60.000000     0.000000     0.000000    -1.000000     0.000000     0.000000     0.000000
    3     1.000000   120.000000     0.000000     0.000000    -1.000000     0.000000     0.000000     0.000000
    4    -1.000000   180.000000     0.000000     0.000000     1.000000     0.000000     0.000000     0.000000
    5     1.000000   120.000000     0.000000     0.000000     1.000000     0.000000     0.000000     0.000000
    6    -1.000000    60.000000     0.000000     0.000000     1.000000     0.000000     0.000000     0.000000
    7    -1.000000   180.000000     0.500000    -0.866025     0.000000     0.000000     0.000000     0.000000
    8     1.000000   180.000000     0.000000     1.000000     0.000000     0.000000     0.000000     0.000000
    9    -1.000000   180.000000    -0.500000    -0.866025     0.000000     0.000000     0.000000     0.000000
   10     1.000000   180.000000     0.866025     0.500000     0.000000     0.000000     0.000000     0.000000
   11    -1.000000   180.000000     1.000000     0.000000     0.000000     0.000000     0.000000     0.000000
   12     1.000000   180.000000     0.866025    -0.500000     0.000000     0.000000     0.000000     0.000000
 
 Subroutine IBZKPT returns following result:
 ===========================================
 
 Found     30 irreducible k-points:
 
 Following reciprocal coordinates:
            Coordinates               Weight
  0.000000  0.000000  0.000000      1.000000
  0.125000  0.000000  0.000000      6.000000
  0.250000  0.000000  0.000000      6.000000
  0.375000  0.000000  0.000000      6.000000
  0.500000  0.000000  0.000000      3.000000
  0.125000  0.125000  0.000000      6.000000
  0.250000  0.125000  0.000000     12.000000
  0.375000  0.125000  0.000000     12.000000
  0.250000  0.250000  0.000000      6.000000
  0.375000  0.250000  0.000000      6.000000
  0.000000  0.000000  0.250000      2.000000
  0.125000  0.000000  0.250000     12.000000
  0.250000  0.000000  0.250000     12.000000
  0.375000  0.000000  0.250000     12.000000
  0.500000  0.000000  0.250000      6.000000
  0.125000  0.125000  0.250000     12.000000
  0.250000  0.125000  0.250000     24.000000
  0.375000  0.125000  0.250000     24.000000
  0.250000  0.250000  0.250000     12.000000
  0.375000  0.250000  0.250000     12.000000
  0.000000  0.000000  0.500000      1.000000
  0.125000  0.000000  0.500000      6.000000
  0.250000  0.000000  0.500000      6.000000
  0.375000  0.000000  0.500000      6.000000
  0.500000  0.000000  0.500000      3.000000
  0.125000  0.125000  0.500000      6.000000
  0.250000  0.125000  0.500000     12.000000
  0.375000  0.125000  0.500000     12.000000
  0.250000  0.250000  0.500000      6.000000
  0.375000  0.250000  0.500000      6.000000
 
 Following cartesian coordinates:
            Coordinates               Weight
  0.000000  0.000000  0.000000      1.000000
  0.049752 -0.028724  0.000000      6.000000
  0.099503 -0.057448  0.000000      6.000000
  0.149255 -0.086173  0.000000      6.000000
  0.199007 -0.114897  0.000000      3.000000
  0.099503  0.000000  0.000000      6.000000
  0.149255 -0.028724  0.000000     12.000000
  0.199007 -0.057448  0.000000     12.000000
  0.199007  0.000000  0.000000      6.000000
  0.248759 -0.028724  0.000000      6.000000
  0.000000  0.000000  0.033216      2.000000
  0.049752 -0.028724  0.033216     12.000000
  0.099503 -0.057448  0.033216     12.000000
  0.149255 -0.086173  0.033216     12.000000
  0.199007 -0.114897  0.033216      6.000000
  0.099503  0.000000  0.033216     12.000000
  0.149255 -0.028724  0.033216     24.000000
  0.199007 -0.057448  0.033216     24.000000
  0.199007  0.000000  0.033216     12.000000
  0.248759 -0.028724  0.033216     12.000000
  0.000000  0.000000  0.066432      1.000000
  0.049752 -0.028724  0.066432      6.000000
  0.099503 -0.057448  0.066432      6.000000
  0.149255 -0.086173  0.066432      6.000000
  0.199007 -0.114897  0.066432      3.000000
  0.099503  0.000000  0.066432      6.000000
  0.149255 -0.028724  0.066432     12.000000
  0.199007 -0.057448  0.066432     12.000000
  0.199007  0.000000  0.066432      6.000000
  0.248759 -0.028724  0.066432      6.000000
 


--------------------------------------------------------------------------------------------------------




 Dimension of arrays:
   k-points           NKPTS =     30   k-points in BZ     NKDIM =     30   number of bands    NBANDS=     20
   number of dos      NEDOS =    301   number of ions     NIONS =      2
   non local maximal  LDIM  =      4   non local SUM 2l+1 LMDIM =      8
   total plane-waves  NPLWV =   8232
   max r-space proj   IRMAX =      1   max aug-charges    IRDMAX=  25156
   dimension x,y,z NGX =    14 NGY =   14 NGZ =   42
   dimension x,y,z NGXF=    28 NGYF=   28 NGZF=   84
   support grid    NGXF=    56 NGYF=   56 NGZF=  168
   ions per type =               1   1
   NGX,Y,Z   is equivalent  to a cutoff of   9.26,  9.26,  9.28 a.u.
   NGXF,Y,Z  is equivalent  to a cutoff of  18.53, 18.53, 18.55 a.u.

 SYSTEM =  BiFeO3                                  
 POSCAR =  B2 N2                                   

 Startparameter for this run:
   NWRITE =      2    write-flag & timer
   PREC   = normal    normal or accurate (medium, high low for compatibility)
   ISTART =      0    job   : 0-new  1-cont  2-samecut
   ICHARG =      2    charge: 1-file 2-atom 10-const
   ISPIN  =      1    spin polarized calculation?
   LNONCOLLINEAR =      F non collinear calculations
   LSORBIT =      F    spin-orbit coupling
   INIWAV =      1    electr: 0-lowe 1-rand  2-diag
   LASPH  =      F    aspherical Exc in radial PAW
   METAGGA=      F    non-selfconsistent MetaGGA calc.

 Electronic Relaxation 1
   ENCUT  =  500.0 eV  36.75 Ry    6.06 a.u.   4.58  4.58 13.72*2*pi/ulx,y,z
   ENINI  =  500.0     initial cutoff
   ENAUG  =  627.1 eV  augmentation charge cutoff
   NELM   =     60;   NELMIN=  2; NELMDL= -5     # of ELM steps 
   EDIFF  = 0.1E-03   stopping-criterion for ELM
   LREAL  =      F    real-space projection
   NLSPLINE    = F    spline interpolate recip. space projectors
   LCOMPAT=      F    compatible to vasp.4.4
   GGA_COMPAT  = T    GGA compatible to vasp.4.4-vasp.4.6
   LMAXPAW     = -100 max onsite density
   LMAXMIX     =    2 max onsite mixed and CHGCAR
   VOSKOWN=      0    Vosko Wilk Nusair interpolation
   ROPT   =    0.00000   0.00000
 Ionic relaxation
   EDIFFG = 0.1E-02   stopping-criterion for IOM
   NSW    =      0    number of steps for IOM
   NBLOCK =      1;   KBLOCK =      1    inner block; outer block 
   IBRION =     -1    ionic relax: 0-MD 1-quasi-New 2-CG
   NFREE  =      0    steps in history (QN), initial steepest desc. (CG)
   ISIF   =      2    stress and relaxation
   IWAVPR =     10    prediction:  0-non 1-charg 2-wave 3-comb
   ISYM   =      2    0-nonsym 1-usesym 2-fastsym
   LCORR  =      T    Harris-Foulkes like correction to forces

   POTIM  = 0.5000    time-step for ionic-motion
   TEIN   =    0.0    initial temperature
   TEBEG  =    0.0;   TEEND  =   0.0 temperature during run
   SMASS  =  -3.00    Nose mass-parameter (am)
   estimated Nose-frequenzy (Omega)   =  0.10E-29 period in steps =****** mass=  -0.144E-27a.u.
   SCALEE = 1.0000    scale energy and forces
   NPACO  =    256;   APACO  = 16.0  distance and # of slots for P.C.
   PSTRESS=    0.0 pullay stress

  Mass of Ions in am
   POMASS =  10.81 14.00
  Ionic Valenz
   ZVAL   =   3.00  5.00
  Atomic Wigner-Seitz radii
   RWIGS  =  -1.00 -1.00
  virtual crystal weights 
   VCA    =   1.00  1.00
   NELECT =       8.0000    total number of electrons
   NUPDOWN=      -1.0000    fix difference up-down

 DOS related values:
   EMIN   =  10.00;   EMAX   =-10.00  energy-range for DOS
   EFERMI =   0.00
   ISMEAR =     0;   SIGMA  =   0.05  broadening in eV -4-tet -1-fermi 0-gaus

 Electronic relaxation 2 (details)
   IALGO  =     38    algorithm
   LDIAG  =      T    sub-space diagonalisation (order eigenvalues)
   LSUBROT=      F    optimize rotation matrix (better conditioning)
   TURBO    =      0    0=normal 1=particle mesh
   IRESTART =      0    0=no restart 2=restart with 2 vectors
   NREBOOT  =      0    no. of reboots
   NMIN     =      0    reboot dimension
   EREF     =   0.00    reference energy to select bands
   IMIX   =      4    mixing-type and parameters
     AMIX     =   0.40;   BMIX     =  1.00
     AMIX_MAG =   1.60;   BMIX_MAG =  1.00
     AMIN     =   0.10
     WC   =   100.;   INIMIX=   1;  MIXPRE=   1;  MAXMIX= -45

 Intra band minimization:
   WEIMIN = 0.0000     energy-eigenvalue tresh-hold
   EBREAK =  0.13E-05  absolut break condition
   DEPER  =   0.30     relativ break condition  

   TIME   =   0.40     timestep for ELM

  volume/ion in A,a.u.               =      20.57       138.83
  Fermi-wavevector in a.u.,A,eV,Ry     =   0.948411  1.792237 12.238215  0.899483
  Thomas-Fermi vector in A             =   2.076597
 
 Write flags
   LWAVE        =      T    write WAVECAR
   LDOWNSAMPLE  =      F    k-point downsampling of WAVECAR
   LCHARG       =      T    write CHGCAR
   LVTOT        =      F    write LOCPOT, total local potential
   LVHAR        =      F    write LOCPOT, Hartree potential only
   LELF         =      F    write electronic localiz. function (ELF)
   LORBIT       =     11    0 simple, 1 ext, 2 COOP (PROOUT), +10 PAW based schemes


 Dipole corrections
   LMONO  =      F    monopole corrections only (constant potential shift)
   LDIPOL =      F    correct potential (dipole corrections)
   IDIPOL =      0    1-x, 2-y, 3-z, 4-all directions 
   EPSILON=  1.0000000 bulk dielectric constant

 Exchange correlation treatment:
   GGA     =    --    GGA type
   LEXCH   =     8    internal setting for exchange type
   VOSKOWN=      0    Vosko Wilk Nusair interpolation
   LHFCALC =     F    Hartree Fock is set to
   LHFONE  =     F    Hartree Fock one center treatment
   AEXX    =    0.0000 exact exchange contribution

 Linear response parameters
   LEPSILON=     F    determine dielectric tensor
   LRPA    =     F    only Hartree local field effects (RPA)
   LNABLA  =     F    use nabla operator in PAW spheres
   LVEL    =     F    velocity operator in full k-point grid
   LINTERFAST=   F  fast interpolation
   KINTER  =     0    interpolate to denser k-point grid
   CSHIFT  =0.1000    complex shift for real part using Kramers Kronig
   OMEGAMAX=  -1.0    maximum frequency
   DEG_THRESHOLD= 0.2000000E-02 threshold for treating states as degnerate
   RTIME   =   -0.100 relaxation time in fs
  (WPLASMAI=    0.000 imaginary part of plasma frequency in eV, 0.658/RTIME)
   DFIELD  = 0.0000000 0.0000000 0.0000000 field for delta impulse in time
 
 Orbital magnetization related:
   ORBITALMAG=     F  switch on orbital magnetization
   LCHIMAG   =     F  perturbation theory with respect to B field
   DQ        =  0.001000  dq finite difference perturbation B field
   LLRAUG    =     F  two centre corrections for induced B field



--------------------------------------------------------------------------------------------------------


 Static calculation
 charge density and potential will be updated during run
 non-spin polarized calculation
 Variant of blocked Davidson
 Davidson routine will perform the subspace rotation
 perform sub-space diagonalisation
    after iterative eigenvector-optimisation
 modified Broyden-mixing scheme, WC =      100.0
 initial mixing is a Kerker type mixing with AMIX =  0.4000 and BMIX =      1.0000
 Hartree-type preconditioning will be used
 using additional bands           16
 reciprocal scheme for non local part
 use partial core corrections
 calculate Harris-corrections to forces 
   (improved forces if not selfconsistent)
 use gradient corrections 
 use of overlap-Matrix (Vanderbilt PP)
 Gauss-broadening in eV      SIGMA  =   0.05


--------------------------------------------------------------------------------------------------------


  energy-cutoff  :      500.00
  volume of cell :       41.15
      direct lattice vectors                 reciprocal lattice vectors
     1.256237318 -2.175866861  0.000000000     0.398013968 -0.229793472  0.000000000
     1.256237318  2.175866861  0.000000000     0.398013968  0.229793472  0.000000000
     0.000000000  0.000000000  7.526459174     0.000000000  0.000000000  0.132864602

  length of vectors
     2.512474636  2.512474636  7.526459174     0.459586943  0.459586943  0.132864602


 
 k-points in units of 2pi/SCALE and weight: A                                       
   0.00000000  0.00000000  0.00000000       0.004
   0.04975175 -0.02872418  0.00000000       0.023
   0.09950349 -0.05744837  0.00000000       0.023
   0.14925524 -0.08617255  0.00000000       0.023
   0.19900698 -0.11489674  0.00000000       0.012
   0.09950349  0.00000000  0.00000000       0.023
   0.14925524 -0.02872418  0.00000000       0.047
   0.19900698 -0.05744837  0.00000000       0.047
   0.19900698  0.00000000  0.00000000       0.023
   0.24875873 -0.02872418  0.00000000       0.023
   0.00000000  0.00000000  0.03321615       0.008
   0.04975175 -0.02872418  0.03321615       0.047
   0.09950349 -0.05744837  0.03321615       0.047
   0.14925524 -0.08617255  0.03321615       0.047
   0.19900698 -0.11489674  0.03321615       0.023
   0.09950349  0.00000000  0.03321615       0.047
   0.14925524 -0.02872418  0.03321615       0.094
   0.19900698 -0.05744837  0.03321615       0.094
   0.19900698  0.00000000  0.03321615       0.047
   0.24875873 -0.02872418  0.03321615       0.047
   0.00000000  0.00000000  0.06643230       0.004
   0.04975175 -0.02872418  0.06643230       0.023
   0.09950349 -0.05744837  0.06643230       0.023
   0.14925524 -0.08617255  0.06643230       0.023
   0.19900698 -0.11489674  0.06643230       0.012
   0.09950349  0.00000000  0.06643230       0.023
   0.14925524 -0.02872418  0.06643230       0.047
   0.19900698 -0.05744837  0.06643230       0.047
   0.19900698  0.00000000  0.06643230       0.023
   0.24875873 -0.02872418  0.06643230       0.023
 
 k-points in reciprocal lattice and weights: A                                       
   0.00000000  0.00000000  0.00000000       0.004
   0.12500000  0.00000000  0.00000000       0.023
   0.25000000  0.00000000  0.00000000       0.023
   0.37500000  0.00000000  0.00000000       0.023
   0.50000000  0.00000000  0.00000000       0.012
   0.12500000  0.12500000  0.00000000       0.023
   0.25000000  0.12500000  0.00000000       0.047
   0.37500000  0.12500000  0.00000000       0.047
   0.25000000  0.25000000  0.00000000       0.023
   0.37500000  0.25000000  0.00000000       0.023
   0.00000000  0.00000000  0.25000000       0.008
   0.12500000  0.00000000  0.25000000       0.047
   0.25000000  0.00000000  0.25000000       0.047
   0.37500000  0.00000000  0.25000000       0.047
   0.50000000  0.00000000  0.25000000       0.023
   0.12500000  0.12500000  0.25000000       0.047
   0.25000000  0.12500000  0.25000000       0.094
   0.37500000  0.12500000  0.25000000       0.094
   0.25000000  0.25000000  0.25000000       0.047
   0.37500000  0.25000000  0.25000000       0.047
   0.00000000  0.00000000  0.50000000       0.004
   0.12500000  0.00000000  0.50000000       0.023
   0.25000000  0.00000000  0.50000000       0.023
   0.37500000  0.00000000  0.50000000       0.023
   0.50000000  0.00000000  0.50000000       0.012
   0.12500000  0.12500000  0.50000000       0.023
   0.25000000  0.12500000  0.50000000       0.047
   0.37500000  0.12500000  0.50000000       0.047
   0.25000000  0.25000000  0.50000000       0.023
   0.37500000  0.25000000  0.50000000       0.023
 
 position of ions in fractional coordinates (direct lattice) 
   0.00000000  0.00000000  0.00000000
   0.33333333  0.66666667  0.00000000
 
 position of ions in cartesian coordinates  (Angst):
   0.00000000  0.00000000  0.00000000
   1.25623732  0.72528895  0.00000000
 


--------------------------------------------------------------------------------------------------------


 k-point  1 :   0.0000 0.0000 0.0000  plane waves:    1041
 k-point  2 :   0.1250 0.0000 0.0000  plane waves:    1056
 k-point  3 :   0.2500 0.0000 0.0000  plane waves:    1062
 k-point  4 :   0.3750 0.0000 0.0000  plane waves:    1040
 k-point  5 :   0.5000 0.0000 0.0000  plane waves:    1032
 k-point  6 :   0.1250 0.1250 0.0000  plane waves:    1053
 k-point  7 :   0.2500 0.1250 0.0000  plane waves:    1050
 k-point  8 :   0.3750 0.1250 0.0000  plane waves:    1041
 k-point  9 :   0.2500 0.2500 0.0000  plane waves:    1025
 k-point 10 :   0.3750 0.2500 0.0000  plane waves:    1024
 k-point 11 :   0.0000 0.0000 0.2500  plane waves:    1041
 k-point 12 :   0.1250 0.0000 0.2500  plane waves:    1055
 k-point 13 :   0.2500 0.0000 0.2500  plane waves:    1061
 k-point 14 :   0.3750 0.0000 0.2500  plane waves:    1041
 k-point 15 :   0.5000 0.0000 0.2500  plane waves:    1032
 k-point 16 :   0.1250 0.1250 0.2500  plane waves:    1058
 k-point 17 :   0.2500 0.1250 0.2500  plane waves:    1045
 k-point 18 :   0.3750 0.1250 0.2500  plane waves:    1043
 k-point 19 :   0.2500 0.2500 0.2500  plane waves:    1039
 k-point 20 :   0.3750 0.2500 0.2500  plane waves:    1028
 k-point 21 :   0.0000 0.0000 0.5000  plane waves:    1048
 k-point 22 :   0.1250 0.0000 0.5000  plane waves:    1060
 k-point 23 :   0.2500 0.0000 0.5000  plane waves:    1050
 k-point 24 :   0.3750 0.0000 0.5000  plane waves:    1040
 k-point 25 :   0.5000 0.0000 0.5000  plane waves:    1020
 k-point 26 :   0.1250 0.1250 0.5000  plane waves:    1056
 k-point 27 :   0.2500 0.1250 0.5000  plane waves:    1048
 k-point 28 :   0.3750 0.1250 0.5000  plane waves:    1032
 k-point 29 :   0.2500 0.2500 0.5000  plane waves:    1048
 k-point 30 :   0.3750 0.2500 0.5000  plane waves:    1044

 maximum and minimum number of plane-waves per node :      1062     1020

 maximum number of plane-waves:      1062
 maximum index in each direction: 
   IXMAX=    4   IYMAX=    4   IZMAX=   13
   IXMIN=   -5   IYMIN=   -4   IZMIN=  -14


 serial   3D FFT for wavefunctions
 parallel 3D FFT for charge:
    minimum data exchange during FFTs selected (reduces bandwidth)


 total amount of memory used by VASP MPI-rank0    35876. kBytes
=======================================================================

   base      :      30000. kBytes
   nonl-proj :       4181. kBytes
   fftplans  :        561. kBytes
   grid      :        600. kBytes
   one-center:          6. kBytes
   wavefun   :        528. kBytes
 
     INWAV:  cpu time    0.0000: real time    0.0000
 Broyden mixing: mesh for mixing (old mesh)
   NGX =  9   NGY =  9   NGZ = 27
  (NGX  = 28   NGY  = 28   NGZ  = 84)
  gives a total of   2187 points

 initial charge density was supplied:
 charge density of overlapping atoms calculated
 number of electron       8.0000000 magnetization 
 keeping initial charge density in first step


--------------------------------------------------------------------------------------------------------


 Maximum index for augmentation-charges         1246 (set IRDMAX)


--------------------------------------------------------------------------------------------------------


 First call to EWALD:  gamma=   0.513
 Maximum number of real-space cells 4x 4x 2
 Maximum number of reciprocal cells 2x 2x 5

    FEWALD:  cpu time    0.0015: real time    0.0015


--------------------------------------- Iteration      1(   1)  ---------------------------------------


    POTLOK:  cpu time    0.0038: real time    0.0044
    SETDIJ:  cpu time    0.0022: real time    0.0022
     EDDAV:  cpu time    0.1150: real time    0.1159
       DOS:  cpu time    0.0003: real time    0.0003
    --------------------------------------------
      LOOP:  cpu time    0.1212: real time    0.1228

 eigenvalue-minimisations  :  1200
 total energy-change (2. order) : 0.2850281E+01  (-0.4301884E+03)
 number of electron       8.0000000 magnetization 
 augmentation part        8.0000000 magnetization 

 Free energy of the ion-electron system (eV)
  ---------------------------------------------------
  alpha Z        PSCENC =         8.64846017
  Ewald energy   TEWEN  =       121.23345169
  -Hartree energ DENC   =      -401.58828547
  -exchange      EXHF   =         0.00000000
  -V(xc)+E(xc)   XCENC  =        26.90598202
  PAW double counting   =       248.43259712     -248.76826126
  entropy T*S    EENTRO =        -0.00000000
  eigenvalues    EBANDS =       -87.71762989
  atomic energy  EATOM  =       335.70396624
  Solvation  Ediel_sol  =         0.00000000
  ---------------------------------------------------
  free energy    TOTEN  =         2.85028062 eV

  energy without entropy =        2.85028062  energy(sigma->0) =        2.85028062


--------------------------------------------------------------------------------------------------------




--------------------------------------- Iteration      1(   2)  ---------------------------------------


     EDDAV:  cpu time    0.1802: real time    0.1823
       DOS:  cpu time    0.0002: real time    0.0002
    --------------------------------------------
      LOOP:  cpu time    0.1803: real time    0.1825

 eigenvalue-minimisations  :  1780
 total energy-change (2. order) :-0.2224243E+02  (-0.2224243E+02)
 number of electron       8.0000000 magnetization 
 augmentation part        8.0000000 magnetization 

 Free energy of the ion-electron system (eV)
  ---------------------------------------------------
  alpha Z        PSCENC =         8.64846017
  Ewald energy   TEWEN  =       121.23345169
  -Hartree energ DENC   =      -401.58828547
  -exchange      EXHF   =         0.00000000
  -V(xc)+E(xc)   XCENC  =        26.90598202
  PAW double counting   =       248.43259712     -248.76826126
  entropy T*S    EENTRO =        -0.00000000
  eigenvalues    EBANDS =      -109.96006220
  atomic energy  EATOM  =       335.70396624
  Solvation  Ediel_sol  =         0.00000000
  ---------------------------------------------------
  free energy    TOTEN  =       -19.39215168 eV

  energy without entropy =      -19.39215168  energy(sigma->0) =      -19.39215168


--------------------------------------------------------------------------------------------------------




--------------------------------------- Iteration      1(   3)  ---------------------------------------


     EDDAV:  cpu time    0.0988: real time    0.0995
       DOS:  cpu time    0.0002: real time    0.0002
    --------------------------------------------
      LOOP:  cpu time    0.0990: real time    0.0997

 eigenvalue-minimisations  :  1240
 total energy-change (2. order) :-0.1128218E+00  (-0.1128218E+00)
 number of electron       8.0000000 magnetization 
 augmentation part        8.0000000 magnetization 

 Free energy of the ion-electron system (eV)
  ---------------------------------------------------
  alpha Z        PSCENC =         8.64846017
  Ewald energy   TEWEN  =       121.23345169
  -Hartree energ DENC   =      -401.58828547
  -exchange      EXHF   =         0.00000000
  -V(xc)+E(xc)   XCENC  =        26.90598202
  PAW double counting   =       248.43259712     -248.76826126
  entropy T*S    EENTRO =        -0.00000000
  eigenvalues    EBANDS =      -110.07288404
  atomic energy  EATOM  =       335.70396624
  Solvation  Ediel_sol  =         0.00000000
  ---------------------------------------------------
  free energy    TOTEN  =       -19.50497353 eV

  energy without entropy =      -19.50497353  energy(sigma->0) =      -19.50497353


--------------------------------------------------------------------------------------------------------




--------------------------------------- Iteration      1(   4)  ---------------------------------------


     EDDAV:  cpu time    0.2740: real time    0.2758
       DOS:  cpu time    0.0002: real time    0.0001
    --------------------------------------------
      LOOP:  cpu time    0.2741: real time    0.2760

 eigenvalue-minimisations  :  2200
 total energy-change (2. order) :-0.3329690E-03  (-0.3329690E-03)
 number of electron       8.0000000 magnetization 
 augmentation part        8.0000000 magnetization 

 Free energy of the ion-electron system (eV)
  ---------------------------------------------------
  alpha Z        PSCENC =         8.64846017
  Ewald energy   TEWEN  =       121.23345169
  -Hartree energ DENC   =      -401.58828547
  -exchange      EXHF   =         0.00000000
  -V(xc)+E(xc)   XCENC  =        26.90598202
  PAW double counting   =       248.43259712     -248.76826126
  entropy T*S    EENTRO =        -0.00000000
  eigenvalues    EBANDS =      -110.07321701
  atomic energy  EATOM  =       335.70396624
  Solvation  Ediel_sol  =         0.00000000
  ---------------------------------------------------
  free energy    TOTEN  =       -19.50530650 eV

  energy without entropy =      -19.50530650  energy(sigma->0) =      -19.50530650


--------------------------------------------------------------------------------------------------------




--------------------------------------- Iteration      1(   5)  ---------------------------------------


     EDDAV:  cpu time    0.1029: real time    0.1038
       DOS:  cpu time    0.0001: real time    0.0001
    CHARGE:  cpu time    0.0039: real time    0.0040
    MIXING:  cpu time    0.0004: real time    0.0005
    --------------------------------------------
      LOOP:  cpu time    0.1074: real time    0.1084

 eigenvalue-minimisations  :  1260
 total energy-change (2. order) :-0.7303629E-07  (-0.7303615E-07)
 number of electron       7.9999999 magnetization 
 augmentation part        0.3129646 magnetization 

 Broyden mixing:
  rms(total) = 0.79613E+00    rms(broyden)= 0.79587E+00
  rms(prec ) = 0.11903E+01
  weight for this iteration     100.00

 Free energy of the ion-electron system (eV)
  ---------------------------------------------------
  alpha Z        PSCENC =         8.64846017
  Ewald energy   TEWEN  =       121.23345169
  -Hartree energ DENC   =      -401.58828547
  -exchange      EXHF   =         0.00000000
  -V(xc)+E(xc)   XCENC  =        26.90598202
  PAW double counting   =       248.43259712     -248.76826126
  entropy T*S    EENTRO =        -0.00000000
  eigenvalues    EBANDS =      -110.07321708
  atomic energy  EATOM  =       335.70396624
  Solvation  Ediel_sol  =         0.00000000
  ---------------------------------------------------
  free energy    TOTEN  =       -19.50530657 eV

  energy without entropy =      -19.50530657  energy(sigma->0) =      -19.50530657


--------------------------------------------------------------------------------------------------------




--------------------------------------- Iteration      1(   6)  ---------------------------------------


    POTLOK:  cpu time    0.0020: real time    0.0023
    SETDIJ:  cpu time    0.0022: real time    0.0022
     EDDAV:  cpu time    0.3014: real time    0.3035
       DOS:  cpu time    0.0002: real time    0.0002
    CHARGE:  cpu time    0.0049: real time    0.0050
    MIXING:  cpu time    0.0002: real time    0.0002
    --------------------------------------------
      LOOP:  cpu time    0.3110: real time    0.3133

 eigenvalue-minimisations  :  1740
 total energy-change (2. order) : 0.1619252E+01  (-0.6417353E+00)
 number of electron       8.0000000 magnetization 
 augmentation part        0.2471238 magnetization 

 Broyden mixing:
  rms(total) = 0.37613E+00    rms(broyden)= 0.37605E+00
  rms(prec ) = 0.49132E+00
  weight for this iteration     100.00

 eigenvalues of (default mixing * dielectric matrix)
  average eigenvalue GAMMA=   1.0891
  1.0891

 Free energy of the ion-electron system (eV)
  ---------------------------------------------------
  alpha Z        PSCENC =         8.64846017
  Ewald energy   TEWEN  =       121.23345169
  -Hartree energ DENC   =      -418.27889132
  -exchange      EXHF   =         0.00000000
  -V(xc)+E(xc)   XCENC  =        27.77204788
  PAW double counting   =       450.77286825     -451.33894043
  entropy T*S    EENTRO =        -0.00000000
  eigenvalues    EBANDS =       -92.39901693
  atomic energy  EATOM  =       335.70396624
  Solvation  Ediel_sol  =         0.00000000
  ---------------------------------------------------
  free energy    TOTEN  =       -17.88605444 eV

  energy without entropy =      -17.88605444  energy(sigma->0) =      -17.88605444


--------------------------------------------------------------------------------------------------------




--------------------------------------- Iteration      1(   7)  ---------------------------------------


    POTLOK:  cpu time    0.0020: real time    0.0022
    SETDIJ:  cpu time    0.0020: real time    0.0021
     EDDAV:  cpu time    0.2674: real time    0.2692
       DOS:  cpu time    0.0002: real time    0.0002
    CHARGE:  cpu time    0.0050: real time    0.0050
    MIXING:  cpu time    0.0002: real time    0.0002
    --------------------------------------------
      LOOP:  cpu time    0.2768: real time    0.2788

 eigenvalue-minimisations  :  1680
 total energy-change (2. order) : 0.1962057E+00  (-0.1991446E-01)
 number of electron       8.0000000 magnetization 
 augmentation part        0.2402878 magnetization 

 Broyden mixing:
  rms(total) = 0.21709E+00    rms(broyden)= 0.21707E+00
  rms(prec ) = 0.28172E+00
  weight for this iteration     100.00

 eigenvalues of (default mixing * dielectric matrix)
  average eigenvalue GAMMA=   1.7850
  1.0589  2.5112

 Free energy of the ion-electron system (eV)
  ---------------------------------------------------
  alpha Z        PSCENC =         8.64846017
  Ewald energy   TEWEN  =       121.23345169
  -Hartree energ DENC   =      -424.47626214
  -exchange      EXHF   =         0.00000000
  -V(xc)+E(xc)   XCENC  =        27.99942512
  PAW double counting   =       638.88178497     -639.54275875
  entropy T*S    EENTRO =        -0.00000000
  eigenvalues    EBANDS =       -86.13791604
  atomic energy  EATOM  =       335.70396624
  Solvation  Ediel_sol  =         0.00000000
  ---------------------------------------------------
  free energy    TOTEN  =       -17.68984874 eV

  energy without entropy =      -17.68984874  energy(sigma->0) =      -17.68984874


--------------------------------------------------------------------------------------------------------




--------------------------------------- Iteration      1(   8)  ---------------------------------------


    POTLOK:  cpu time    0.0021: real time    0.0023
    SETDIJ:  cpu time    0.0021: real time    0.0021
     EDDAV:  cpu time    0.2282: real time    0.2296
       DOS:  cpu time    0.0002: real time    0.0002
    CHARGE:  cpu time    0.0049: real time    0.0049
    MIXING:  cpu time    0.0002: real time    0.0002
    --------------------------------------------
      LOOP:  cpu time    0.2376: real time    0.2393

 eigenvalue-minimisations  :  1800
 total energy-change (2. order) : 0.9041128E-01  (-0.2114793E-01)
 number of electron       8.0000000 magnetization 
 augmentation part        0.2358336 magnetization 

 Broyden mixing:
  rms(total) = 0.28875E-01    rms(broyden)= 0.28830E-01
  rms(prec ) = 0.63343E-01
  weight for this iteration     100.00

 eigenvalues of (default mixing * dielectric matrix)
  average eigenvalue GAMMA=   1.6138
  2.2661  1.0357  1.5395

 Free energy of the ion-electron system (eV)
  ---------------------------------------------------
  alpha Z        PSCENC =         8.64846017
  Ewald energy   TEWEN  =       121.23345169
  -Hartree energ DENC   =      -432.22391477
  -exchange      EXHF   =         0.00000000
  -V(xc)+E(xc)   XCENC  =        28.26957037
  PAW double counting   =       927.94323272     -928.69660684
  entropy T*S    EENTRO =        -0.00000000
  eigenvalues    EBANDS =       -78.47759704
  atomic energy  EATOM  =       335.70396624
  Solvation  Ediel_sol  =         0.00000000
  ---------------------------------------------------
  free energy    TOTEN  =       -17.59943746 eV

  energy without entropy =      -17.59943746  energy(sigma->0) =      -17.59943746


--------------------------------------------------------------------------------------------------------




--------------------------------------- Iteration      1(   9)  ---------------------------------------


    POTLOK:  cpu time    0.0020: real time    0.0022
    SETDIJ:  cpu time    0.0020: real time    0.0021
     EDDAV:  cpu time    0.2206: real time    0.2220
       DOS:  cpu time    0.0002: real time    0.0002
    CHARGE:  cpu time    0.0049: real time    0.0049
    MIXING:  cpu time    0.0002: real time    0.0003
    --------------------------------------------
      LOOP:  cpu time    0.2300: real time    0.2316

 eigenvalue-minimisations  :  1360
 total energy-change (2. order) : 0.2753113E-02  (-0.2364344E-03)
 number of electron       8.0000000 magnetization 
 augmentation part        0.2357325 magnetization 

 Broyden mixing:
  rms(total) = 0.11753E-01    rms(broyden)= 0.11743E-01
  rms(prec ) = 0.38642E-01
  weight for this iteration     100.00

 eigenvalues of (default mixing * dielectric matrix)
  average eigenvalue GAMMA=   1.7629
  1.0608  1.0608  2.4650  2.4650

 Free energy of the ion-electron system (eV)
  ---------------------------------------------------
  alpha Z        PSCENC =         8.64846017
  Ewald energy   TEWEN  =       121.23345169
  -Hartree energ DENC   =      -433.20151228
  -exchange      EXHF   =         0.00000000
  -V(xc)+E(xc)   XCENC  =        28.28084660
  PAW double counting   =       924.82325440     -925.55976412
  entropy T*S    EENTRO =        -0.00000000
  eigenvalues    EBANDS =       -77.52538706
  atomic energy  EATOM  =       335.70396624
  Solvation  Ediel_sol  =         0.00000000
  ---------------------------------------------------
  free energy    TOTEN  =       -17.59668435 eV

  energy without entropy =      -17.59668435  energy(sigma->0) =      -17.59668435


--------------------------------------------------------------------------------------------------------




--------------------------------------- Iteration      1(  10)  ---------------------------------------


    POTLOK:  cpu time    0.0020: real time    0.0022
    SETDIJ:  cpu time    0.0020: real time    0.0021
     EDDAV:  cpu time    0.2484: real time    0.2501
       DOS:  cpu time    0.0002: real time    0.0002
    CHARGE:  cpu time    0.0049: real time    0.0049
    MIXING:  cpu time    0.0003: real time    0.0003
    --------------------------------------------
      LOOP:  cpu time    0.2578: real time    0.2597

 eigenvalue-minimisations  :  1620
 total energy-change (2. order) : 0.1181856E-02  (-0.3331649E-03)
 number of electron       8.0000000 magnetization 
 augmentation part        0.2355432 magnetization 

 Broyden mixing:
  rms(total) = 0.99972E-02    rms(broyden)= 0.99916E-02
  rms(prec ) = 0.17345E-01
  weight for this iteration     100.00

 eigenvalues of (default mixing * dielectric matrix)
  average eigenvalue GAMMA=   2.2513
  4.5167  1.0231  1.0231  2.4206  2.2731

 Free energy of the ion-electron system (eV)
  ---------------------------------------------------
  alpha Z        PSCENC =         8.64846017
  Ewald energy   TEWEN  =       121.23345169
  -Hartree energ DENC   =      -434.99296085
  -exchange      EXHF   =         0.00000000
  -V(xc)+E(xc)   XCENC  =        28.31469969
  PAW double counting   =       937.35017916     -938.07909481
  entropy T*S    EENTRO =        -0.00000000
  eigenvalues    EBANDS =       -75.77420379
  atomic energy  EATOM  =       335.70396624
  Solvation  Ediel_sol  =         0.00000000
  ---------------------------------------------------
  free energy    TOTEN  =       -17.59550249 eV

  energy without entropy =      -17.59550249  energy(sigma->0) =      -17.59550249


--------------------------------------------------------------------------------------------------------




--------------------------------------- Iteration      1(  11)  ---------------------------------------


    POTLOK:  cpu time    0.0020: real time    0.0023
    SETDIJ:  cpu time    0.0021: real time    0.0021
     EDDAV:  cpu time    0.2332: real time    0.2347
       DOS:  cpu time    0.0003: real time    0.0003
    CHARGE:  cpu time    0.0052: real time    0.0052
    MIXING:  cpu time    0.0002: real time    0.0002
    --------------------------------------------
      LOOP:  cpu time    0.2429: real time    0.2448

 eigenvalue-minimisations  :  1520
 total energy-change (2. order) :-0.1975246E-02  (-0.1019327E-03)
 number of electron       8.0000000 magnetization 
 augmentation part        0.2352648 magnetization 

 Broyden mixing:
  rms(total) = 0.24053E-02    rms(broyden)= 0.23977E-02
  rms(prec ) = 0.32602E-02
  weight for this iteration     100.00

 eigenvalues of (default mixing * dielectric matrix)
  average eigenvalue GAMMA=   2.1553
  4.7745  2.5974  2.1484  0.9923  1.0221  1.3972

 Free energy of the ion-electron system (eV)
  ---------------------------------------------------
  alpha Z        PSCENC =         8.64846017
  Ewald energy   TEWEN  =       121.23345169
  -Hartree energ DENC   =      -435.82214577
  -exchange      EXHF   =         0.00000000
  -V(xc)+E(xc)   XCENC  =        28.32516705
  PAW double counting   =       922.98550853     -923.71581687
  entropy T*S    EENTRO =        -0.00000000
  eigenvalues    EBANDS =       -74.95606878
  atomic energy  EATOM  =       335.70396624
  Solvation  Ediel_sol  =         0.00000000
  ---------------------------------------------------
  free energy    TOTEN  =       -17.59747774 eV

  energy without entropy =      -17.59747774  energy(sigma->0) =      -17.59747774


--------------------------------------------------------------------------------------------------------




--------------------------------------- Iteration      1(  12)  ---------------------------------------


    POTLOK:  cpu time    0.0020: real time    0.0022
    SETDIJ:  cpu time    0.0022: real time    0.0022
     EDDAV:  cpu time    0.1874: real time    0.1887
       DOS:  cpu time    0.0002: real time    0.0002
    CHARGE:  cpu time    0.0052: real time    0.0052
    MIXING:  cpu time    0.0003: real time    0.0003
    --------------------------------------------
      LOOP:  cpu time    0.1973: real time    0.1988

 eigenvalue-minimisations  :  1520
 total energy-change (2. order) :-0.2021679E-03  (-0.2646121E-05)
 number of electron       8.0000000 magnetization 
 augmentation part        0.2352355 magnetization 

 Broyden mixing:
  rms(total) = 0.15946E-02    rms(broyden)= 0.15934E-02
  rms(prec ) = 0.18274E-02
  weight for this iteration     100.00

 eigenvalues of (default mixing * dielectric matrix)
  average eigenvalue GAMMA=   2.2790
  5.3401  2.8985  2.5129  2.1305  0.9922  1.0396  1.0396

 Free energy of the ion-electron system (eV)
  ---------------------------------------------------
  alpha Z        PSCENC =         8.64846017
  Ewald energy   TEWEN  =       121.23345169
  -Hartree energ DENC   =      -435.83882525
  -exchange      EXHF   =         0.00000000
  -V(xc)+E(xc)   XCENC  =        28.32428838
  PAW double counting   =       923.44966810     -924.17972480
  entropy T*S    EENTRO =        -0.00000000
  eigenvalues    EBANDS =       -74.93896444
  atomic energy  EATOM  =       335.70396624
  Solvation  Ediel_sol  =         0.00000000
  ---------------------------------------------------
  free energy    TOTEN  =       -17.59767991 eV

  energy without entropy =      -17.59767991  energy(sigma->0) =      -17.59767991


--------------------------------------------------------------------------------------------------------




--------------------------------------- Iteration      1(  13)  ---------------------------------------


    POTLOK:  cpu time    0.0021: real time    0.0023
    SETDIJ:  cpu time    0.0022: real time    0.0022
     EDDAV:  cpu time    0.2186: real time    0.2200
       DOS:  cpu time    0.0002: real time    0.0002
    --------------------------------------------
      LOOP:  cpu time    0.2230: real time    0.2247

 eigenvalue-minimisations  :  1360
 total energy-change (2. order) :-0.4850950E-04  (-0.9103818E-06)
 number of electron       8.0000000 magnetization 
 augmentation part        0.2352355 magnetization 

 Free energy of the ion-electron system (eV)
  ---------------------------------------------------
  alpha Z        PSCENC =         8.64846017
  Ewald energy   TEWEN  =       121.23345169
  -Hartree energ DENC   =      -435.83441785
  -exchange      EXHF   =         0.00000000
  -V(xc)+E(xc)   XCENC  =        28.32354723
  PAW double counting   =       925.58383299     -926.31411995
  entropy T*S    EENTRO =        -0.00000000
  eigenvalues    EBANDS =       -74.94244893
  atomic energy  EATOM  =       335.70396624
  Solvation  Ediel_sol  =         0.00000000
  ---------------------------------------------------
  free energy    TOTEN  =       -17.59772842 eV

  energy without entropy =      -17.59772842  energy(sigma->0) =      -17.59772842


--------------------------------------------------------------------------------------------------------




 average (electrostatic) potential at core
  the test charge radii are     0.7672  0.7089
  (the norm of the test charge is              1.0000)
       1 -33.5724       2 -69.4744
 
 
 
 E-fermi :  -2.1125     XC(G=0):  -5.4388     alpha+bet : -4.8091


 k-point     1 :       0.0000    0.0000    0.0000
  band No.  band energies     occupation 
      1     -19.8679      2.00000
      2      -7.4569      2.00000
      3      -3.6056      2.00000
      4      -3.6055      2.00000
      5       2.0512      0.00000
      6       5.2068      0.00000
      7       6.8077      0.00000
      8       9.2567      0.00000
      9       9.2567      0.00000
     10      10.7640      0.00000
     11      11.8342      0.00000
     12      17.2441      0.00000
     13      20.4381      0.00000
     14      23.2643      0.00000
     15      27.3837      0.00000
     16      27.3837      0.00000
     17      29.1618      0.00000
     18      30.4350      0.00000
     19      30.4350      0.00000
     20      33.0607      0.00000

 k-point     2 :       0.1250    0.0000    0.0000
  band No.  band energies     occupation 
      1     -19.5711      2.00000
      2      -7.0583      2.00000
      3      -4.7900      2.00000
      4      -4.1437      2.00000
      5       2.5579      0.00000
      6       5.5624      0.00000
      7       7.2990      0.00000
      8       9.1544      0.00000
      9       9.9846      0.00000
     10      10.5338      0.00000
     11      12.6803      0.00000
     12      17.2877      0.00000
     13      21.0194      0.00000
     14      23.7986      0.00000
     15      23.9558      0.00000
     16      25.1842      0.00000
     17      26.7573      0.00000
     18      28.6442      0.00000
     19      30.0034      0.00000
     20      30.6726      0.00000

 k-point     3 :       0.2500    0.0000    0.0000
  band No.  band energies     occupation 
      1     -18.7234      2.00000
      2      -7.3435      2.00000
      3      -5.9095      2.00000
      4      -5.2059      2.00000
      5       4.0045      0.00000
      6       5.9512      0.00000
      7       7.9755      0.00000
      8       8.5926      0.00000
      9       9.6343      0.00000
     10      13.6855      0.00000
     11      14.4494      0.00000
     12      17.1559      0.00000
     13      20.1345      0.00000
     14      20.6993      0.00000
     15      22.3985      0.00000
     16      22.8529      0.00000
     17      24.9379      0.00000
     18      25.4129      0.00000
     19      26.8883      0.00000
     20      27.5724      0.00000

 k-point     4 :       0.3750    0.0000    0.0000
  band No.  band energies     occupation 
      1     -17.5355      2.00000
      2      -9.8866      2.00000
      3      -6.0608      2.00000
      4      -4.2484      2.00000
      5       3.9948      0.00000
      6       6.2314      0.00000
      7       8.0779      0.00000
      8       9.8424      0.00000
      9      11.6104      0.00000
     10      13.9506      0.00000
     11      15.5475      0.00000
     12      17.0068      0.00000
     13      17.3869      0.00000
     14      19.1931      0.00000
     15      21.1377      0.00000
     16      21.4110      0.00000
     17      23.2660      0.00000
     18      24.5052      0.00000
     19      26.1148      0.00000
     20      26.4333      0.00000

 k-point     5 :       0.5000    0.0000    0.0000
  band No.  band energies     occupation 
      1     -16.8106      2.00000
      2     -11.1069      2.00000
      3      -6.3741      2.00000
      4      -3.1565      2.00000
      5       2.5187      0.00000
      6       7.3799      0.00000
      7       9.8416      0.00000
      8      10.2494      0.00000
      9      11.8426      0.00000
     10      13.5140      0.00000
     11      14.0523      0.00000
     12      15.3021      0.00000
     13      18.2377      0.00000
     14      19.3517      0.00000
     15      20.5996      0.00000
     16      20.9270      0.00000
     17      23.9583      0.00000
     18      25.2771      0.00000
     19      25.6390      0.00000
     20      26.1520      0.00000

 k-point     6 :       0.1250    0.1250    0.0000
  band No.  band energies     occupation 
      1     -18.9969      2.00000
      2      -6.4094      2.00000
      3      -6.2826      2.00000
      4      -5.1956      2.00000
      5       3.5407      0.00000
      6       6.0194      0.00000
      7       8.2266      0.00000
      8       8.8581      0.00000
      9       9.5243      0.00000
     10      11.7150      0.00000
     11      14.5442      0.00000
     12      17.1587      0.00000
     13      20.6809      0.00000
     14      21.7872      0.00000
     15      23.1258      0.00000
     16      23.6727      0.00000
     17      24.0703      0.00000
     18      25.8680      0.00000
     19      28.5160      0.00000
     20      28.6751      0.00000

 k-point     7 :       0.2500    0.1250    0.0000
  band No.  band energies     occupation 
      1     -17.9553      2.00000
      2      -8.6988      2.00000
      3      -6.4347      2.00000
      4      -4.8487      2.00000
      5       5.0204      0.00000
      6       5.4476      0.00000
      7       9.1028      0.00000
      8       9.1236      0.00000
      9      10.7105      0.00000
     10      13.6002      0.00000
     11      15.4787      0.00000
     12      16.7754      0.00000
     13      18.4451      0.00000
     14      19.7416      0.00000
     15      21.5475      0.00000
     16      21.5786      0.00000
     17      22.6731      0.00000
     18      24.3145      0.00000
     19      25.3474      0.00000
     20      26.4612      0.00000

 k-point     8 :       0.3750    0.1250    0.0000
  band No.  band energies     occupation 
      1     -16.8718      2.00000
      2     -10.6107      2.00000
      3      -7.1107      2.00000
      4      -3.2663      2.00000
      5       2.9572      0.00000
      6       7.9737      0.00000
      7       9.3760      0.00000
      8      10.9956      0.00000
      9      12.0711      0.00000
     10      13.4467      0.00000
     11      13.9525      0.00000
     12      16.0442      0.00000
     13      17.2724      0.00000
     14      18.3526      0.00000
     15      20.7231      0.00000
     16      21.0064      0.00000
     17      21.7107      0.00000
     18      24.5582      0.00000
     19      24.9558      0.00000
     20      25.9298      0.00000

 k-point     9 :       0.2500    0.2500    0.0000
  band No.  band energies     occupation 
      1     -16.9296      2.00000
      2      -9.8256      2.00000
      3      -8.1126      2.00000
      4      -3.3677      2.00000
      5       3.4420      0.00000
      6       7.8175      0.00000
      7      10.3544      0.00000
      8      11.3362      0.00000
      9      11.9385      0.00000
     10      13.5389      0.00000
     11      14.1937      0.00000
     12      15.9224      0.00000
     13      16.8086      0.00000
     14      18.4023      0.00000
     15      19.2765      0.00000
     16      20.4968      0.00000
     17      22.1128      0.00000
     18      22.2938      0.00000
     19      23.5850      0.00000
     20      25.1745      0.00000

 k-point    10 :       0.3750    0.2500    0.0000
  band No.  band energies     occupation 
      1     -16.3532      2.00000
      2     -10.4118      2.00000
      3      -8.7972      2.00000
      4      -2.4518      2.00000
      5       2.4903      0.00000
      6      10.3453      0.00000
      7      10.4640      0.00000
      8      11.1994      0.00000
      9      12.3397      0.00000
     10      14.4224      0.00000
     11      14.5255      0.00000
     12      15.7279      0.00000
     13      16.1183      0.00000
     14      16.2546      0.00000
     15      17.9831      0.00000
     16      19.6625      0.00000
     17      20.4367      0.00000
     18      21.9162      0.00000
     19      24.5107      0.00000
     20      25.1375      0.00000

 k-point    11 :       0.0000    0.0000    0.2500
  band No.  band energies     occupation 
      1     -19.8679      2.00000
      2      -7.4584      2.00000
      3      -3.6056      2.00000
      4      -3.6055      2.00000
      5       2.3156      0.00000
      6       4.2432      0.00000
      7       7.8900      0.00000
      8       9.2567      0.00000
      9       9.2567      0.00000
     10      10.4875      0.00000
     11      12.1205      0.00000
     12      15.7899      0.00000
     13      22.0751      0.00000
     14      23.3021      0.00000
     15      27.3748      0.00000
     16      27.3748      0.00000
     17      28.9938      0.00000
     18      30.3899      0.00000
     19      30.3899      0.00000
     20      32.9124      0.00000

 k-point    12 :       0.1250    0.0000    0.2500
  band No.  band energies     occupation 
      1     -19.5711      2.00000
      2      -7.0597      2.00000
      3      -4.7899      2.00000
      4      -4.1437      2.00000
      5       2.8173      0.00000
      6       4.6914      0.00000
      7       8.0928      0.00000
      8       9.1007      0.00000
      9      10.2949      0.00000
     10      10.5338      0.00000
     11      12.5506      0.00000
     12      16.1188      0.00000
     13      22.0300      0.00000
     14      23.7720      0.00000
     15      24.4709      0.00000
     16      25.1680      0.00000
     17      27.0987      0.00000
     18      28.5909      0.00000
     19      29.7746      0.00000
     20      30.3084      0.00000

 k-point    13 :       0.2500    0.0000    0.2500
  band No.  band energies     occupation 
      1     -18.7234      2.00000
      2      -7.3435      2.00000
      3      -5.9107      2.00000
      4      -5.2059      2.00000
      5       4.2353      0.00000
      6       5.6542      0.00000
      7       7.4113      0.00000
      8       8.5958      0.00000
      9      10.8042      0.00000
     10      13.6859      0.00000
     11      14.0457      0.00000
     12      16.8455      0.00000
     13      19.3740      0.00000
     14      20.8836      0.00000
     15      22.8349      0.00000
     16      22.8848      0.00000
     17      24.8904      0.00000
     18      25.9653      0.00000
     19      27.6215      0.00000
     20      27.8892      0.00000

 k-point    14 :       0.3750    0.0000    0.2500
  band No.  band energies     occupation 
      1     -17.5356      2.00000
      2      -9.8866      2.00000
      3      -6.0608      2.00000
      4      -4.2491      2.00000
      5       3.9794      0.00000
      6       6.4639      0.00000
      7       7.9608      0.00000
      8       9.1344      0.00000
      9      12.5975      0.00000
     10      13.9976      0.00000
     11      15.4774      0.00000
     12      16.8049      0.00000
     13      17.3870      0.00000
     14      18.9639      0.00000
     15      20.5641      0.00000
     16      21.3924      0.00000
     17      23.1856      0.00000
     18      25.6278      0.00000
     19      26.4333      0.00000
     20      26.7343      0.00000

 k-point    15 :       0.5000    0.0000    0.2500
  band No.  band energies     occupation 
      1     -16.8106      2.00000
      2     -11.1069      2.00000
      3      -6.3741      2.00000
      4      -3.1568      2.00000
      5       2.5149      0.00000
      6       7.3963      0.00000
      7      10.0863      0.00000
      8      10.3704      0.00000
      9      11.5951      0.00000
     10      12.2264      0.00000
     11      14.9194      0.00000
     12      15.9740      0.00000
     13      18.5157      0.00000
     14      19.3528      0.00000
     15      20.3888      0.00000
     16      20.9083      0.00000
     17      23.0130      0.00000
     18      24.6436      0.00000
     19      25.9551      0.00000
     20      26.4100      0.00000

 k-point    16 :       0.1250    0.1250    0.2500
  band No.  band energies     occupation 
      1     -18.9970      2.00000
      2      -6.4094      2.00000
      3      -6.2838      2.00000
      4      -5.1956      2.00000
      5       3.7858      0.00000
      6       5.4636      0.00000
      7       7.8170      0.00000
      8       9.4640      0.00000
      9      10.0483      0.00000
     10      11.8105      0.00000
     11      14.1613      0.00000
     12      16.7047      0.00000
     13      19.7582      0.00000
     14      22.8592      0.00000
     15      23.3781      0.00000
     16      24.2376      0.00000
     17      24.3486      0.00000
     18      25.7981      0.00000
     19      27.3564      0.00000
     20      27.8168      0.00000

 k-point    17 :       0.2500    0.1250    0.2500
  band No.  band energies     occupation 
      1     -17.9553      2.00000
      2      -8.6988      2.00000
      3      -6.4347      2.00000
      4      -4.8496      2.00000
      5       4.9350      0.00000
      6       5.7930      0.00000
      7       7.8702      0.00000
      8       9.5667      0.00000
      9      11.6341      0.00000
     10      13.4772      0.00000
     11      15.5863      0.00000
     12      16.8247      0.00000
     13      18.1346      0.00000
     14      19.1392      0.00000
     15      20.7461      0.00000
     16      21.9839      0.00000
     17      22.8468      0.00000
     18      24.5823      0.00000
     19      25.8713      0.00000
     20      26.2972      0.00000

 k-point    18 :       0.3750    0.1250    0.2500
  band No.  band energies     occupation 
      1     -16.8718      2.00000
      2     -10.6107      2.00000
      3      -7.1107      2.00000
      4      -3.2667      2.00000
      5       2.9532      0.00000
      6       8.1323      0.00000
      7       9.3671      0.00000
      8      10.5322      0.00000
      9      12.3424      0.00000
     10      12.9695      0.00000
     11      14.5980      0.00000
     12      15.9587      0.00000
     13      17.4660      0.00000
     14      18.6415      0.00000
     15      20.4325      0.00000
     16      21.2772      0.00000
     17      21.3319      0.00000
     18      23.6573      0.00000
     19      24.7553      0.00000
     20      25.5568      0.00000

 k-point    19 :       0.2500    0.2500    0.2500
  band No.  band energies     occupation 
      1     -16.9297      2.00000
      2      -9.8256      2.00000
      3      -8.1126      2.00000
      4      -3.3683      2.00000
      5       3.4375      0.00000
      6       8.0624      0.00000
      7       9.7063      0.00000
      8      11.5479      0.00000
      9      12.0375      0.00000
     10      13.0762      0.00000
     11      15.1861      0.00000
     12      16.1903      0.00000
     13      16.9847      0.00000
     14      17.8037      0.00000
     15      19.1239      0.00000
     16      19.6251      0.00000
     17      21.8809      0.00000
     18      22.6468      0.00000
     19      24.2095      0.00000
     20      25.4822      0.00000

 k-point    20 :       0.3750    0.2500    0.2500
  band No.  band energies     occupation 
      1     -16.3532      2.00000
      2     -10.4118      2.00000
      3      -8.7972      2.00000
      4      -2.4519      2.00000
      5       2.4887      0.00000
      6      10.3148      0.00000
      7      10.4682      0.00000
      8      11.5341      0.00000
      9      12.3506      0.00000
     10      13.5697      0.00000
     11      14.2153      0.00000
     12      15.8002      0.00000
     13      16.4224      0.00000
     14      16.9295      0.00000
     15      18.3895      0.00000
     16      18.8636      0.00000
     17      20.7592      0.00000
     18      22.9166      0.00000
     19      23.6593      0.00000
     20      25.1939      0.00000

 k-point    21 :       0.0000    0.0000    0.5000
  band No.  band energies     occupation 
      1     -19.8679      2.00000
      2      -7.4599      2.00000
      3      -3.6058      2.00000
      4      -3.6058      2.00000
      5       3.0315      0.00000
      6       3.1325      0.00000
      7       8.8973      0.00000
      8       9.2564      0.00000
      9       9.2564      0.00000
     10      10.0239      0.00000
     11      12.5544      0.00000
     12      14.5674      0.00000
     13      23.0824      0.00000
     14      23.7761      0.00000
     15      27.3660      0.00000
     16      27.3660      0.00000
     17      28.6226      0.00000
     18      30.3477      0.00000
     19      30.3477      0.00000
     20      31.5745      0.00000

 k-point    22 :       0.1250    0.0000    0.5000
  band No.  band energies     occupation 
      1     -19.5711      2.00000
      2      -7.0611      2.00000
      3      -4.7899      2.00000
      4      -4.1438      2.00000
      5       3.4932      0.00000
      6       3.6461      0.00000
      7       8.6399      0.00000
      8       8.9956      0.00000
      9      10.5339      0.00000
     10      10.9027      0.00000
     11      12.2186      0.00000
     12      15.1975      0.00000
     13      22.5239      0.00000
     14      23.7931      0.00000
     15      25.1521      0.00000
     16      25.4229      0.00000
     17      27.8310      0.00000
     18      28.4945      0.00000
     19      29.1564      0.00000
     20      29.4950      0.00000

 k-point    23 :       0.2500    0.0000    0.5000
  band No.  band energies     occupation 
      1     -18.7233      2.00000
      2      -7.3434      2.00000
      3      -5.9118      2.00000
      4      -5.2059      2.00000
      5       4.7481      0.00000
      6       5.0314      0.00000
      7       7.1474      0.00000
      8       8.5964      0.00000
      9      12.5050      0.00000
     10      12.8066      0.00000
     11      13.6860      0.00000
     12      16.5461      0.00000
     13      18.9418      0.00000
     14      21.6291      0.00000
     15      21.9758      0.00000
     16      22.8174      0.00000
     17      26.0745      0.00000
     18      26.1142      0.00000
     19      28.2484      0.00000
     20      28.4572      0.00000

 k-point    24 :       0.3750    0.0000    0.5000
  band No.  band energies     occupation 
      1     -17.5355      2.00000
      2      -9.8866      2.00000
      3      -6.0608      2.00000
      4      -4.2498      2.00000
      5       3.9650      0.00000
      6       6.8459      0.00000
      7       7.6327      0.00000
      8       8.7283      0.00000
      9      13.5380      0.00000
     10      13.9860      0.00000
     11      15.3392      0.00000
     12      16.5487      0.00000
     13      17.3871      0.00000
     14      18.8274      0.00000
     15      19.8119      0.00000
     16      21.3743      0.00000
     17      24.1411      0.00000
     18      25.4204      0.00000
     19      27.0077      0.00000
     20      27.1577      0.00000

 k-point    25 :       0.5000    0.0000    0.5000
  band No.  band energies     occupation 
      1     -16.8105      2.00000
      2     -11.1068      2.00000
      3      -6.3740      2.00000
      4      -3.1570      2.00000
      5       2.5111      0.00000
      6       7.4127      0.00000
      7      10.4603      0.00000
      8      10.7086      0.00000
      9      11.1159      0.00000
     10      11.4348      0.00000
     11      14.9857      0.00000
     12      17.3675      0.00000
     13      18.1823      0.00000
     14      19.3537      0.00000
     15      20.3038      0.00000
     16      20.8900      0.00000
     17      22.3763      0.00000
     18      23.8958      0.00000
     19      26.5254      0.00000
     20      26.7517      0.00000

 k-point    26 :       0.1250    0.1250    0.5000
  band No.  band energies     occupation 
      1     -18.9969      2.00000
      2      -6.4094      2.00000
      3      -6.2851      2.00000
      4      -5.1955      2.00000
      5       4.3729      0.00000
      6       4.6166      0.00000
      7       7.7036      0.00000
      8       9.4814      0.00000
      9      10.8614      0.00000
     10      12.2892      0.00000
     11      13.2726      0.00000
     12      16.3286      0.00000
     13      19.4336      0.00000
     14      22.9970      0.00000
     15      23.7361      0.00000
     16      24.6652      0.00000
     17      24.7650      0.00000
     18      25.9814      0.00000
     19      27.1934      0.00000
     20      27.2583      0.00000

 k-point    27 :       0.2500    0.1250    0.5000
  band No.  band energies     occupation 
      1     -17.9553      2.00000
      2      -8.6988      2.00000
      3      -6.4347      2.00000
      4      -4.8505      2.00000
      5       4.8878      0.00000
      6       6.4236      0.00000
      7       6.8844      0.00000
      8       9.6115      0.00000
      9      12.7527      0.00000
     10      13.0282      0.00000
     11      15.9561      0.00000
     12      16.5389      0.00000
     13      17.5623      0.00000
     14      19.0213      0.00000
     15      20.2972      0.00000
     16      22.1112      0.00000
     17      22.8943      0.00000
     18      24.4002      0.00000
     19      26.5936      0.00000
     20      26.7138      0.00000

 k-point    28 :       0.3750    0.1250    0.5000
  band No.  band energies     occupation 
      1     -16.8717      2.00000
      2     -10.6107      2.00000
      3      -7.1107      2.00000
      4      -3.2671      2.00000
      5       2.9493      0.00000
      6       8.3431      0.00000
      7       9.3357      0.00000
      8      10.1237      0.00000
      9      12.4711      0.00000
     10      12.9432      0.00000
     11      14.4217      0.00000
     12      16.7246      0.00000
     13      17.6598      0.00000
     14      18.3196      0.00000
     15      20.4234      0.00000
     16      20.6308      0.00000
     17      22.2883      0.00000
     18      22.6011      0.00000
     19      24.6411      0.00000
     20      25.5570      0.00000

 k-point    29 :       0.2500    0.2500    0.5000
  band No.  band energies     occupation 
      1     -16.9297      2.00000
      2      -9.8256      2.00000
      3      -8.1127      2.00000
      4      -3.3688      2.00000
      5       3.4331      0.00000
      6       8.6858      0.00000
      7       8.8170      0.00000
      8      11.6246      0.00000
      9      12.1460      0.00000
     10      12.8665      0.00000
     11      16.0822      0.00000
     12      16.7487      0.00000
     13      16.9086      0.00000
     14      17.6758      0.00000
     15      18.4790      0.00000
     16      18.6453      0.00000
     17      21.7670      0.00000
     18      22.7739      0.00000
     19      25.2161      0.00000
     20      26.2112      0.00000

 k-point    30 :       0.3750    0.2500    0.5000
  band No.  band energies     occupation 
      1     -16.3533      2.00000
      2     -10.4118      2.00000
      3      -8.7972      2.00000
      4      -2.4522      2.00000
      5       2.4869      0.00000
      6      10.2178      0.00000
      7      10.6119      0.00000
      8      11.8897      0.00000
      9      12.3518      0.00000
     10      13.1836      0.00000
     11      13.5557      0.00000
     12      16.1152      0.00000
     13      16.5388      0.00000
     14      17.2686      0.00000
     15      18.3641      0.00000
     16      19.0023      0.00000
     17      21.1209      0.00000
     18      22.3277      0.00000
     19      24.6680      0.00000
     20      25.1200      0.00000


--------------------------------------------------------------------------------------------------------


 soft charge-density along one line, spin component           1
         0         1         2         3         4         5         6         7         8         9
 total charge-density along one line
 
 pseudopotential strength for first ion, spin component:           1
  6.670  10.172  -0.000   0.000   0.000  -0.000   0.000   0.000
 10.172  15.510  -0.000   0.000   0.000  -0.000   0.000   0.000
 -0.000  -0.000  -2.286  -0.000  -0.000  -3.918  -0.000  -0.000
  0.000   0.000  -0.000  -2.284  -0.000  -0.000  -3.911  -0.000
  0.000   0.000  -0.000  -0.000  -2.286  -0.000  -0.000  -3.918
 -0.000  -0.000  -3.918  -0.000  -0.000  -6.516  -0.000  -0.000
  0.000   0.000  -0.000  -3.911  -0.000  -0.000  -6.497  -0.000
  0.000   0.000  -0.000  -0.000  -3.918  -0.000  -0.000  -6.516
 total augmentation occupancy for first ion, spin component:           1
  4.192  -1.221   0.000   0.000   0.000  -0.000   0.000   0.000
 -1.221   0.384  -0.000   0.000   0.000  -0.000   0.000   0.000
 -0.000  -0.000   4.891   0.000   0.000  -1.470  -0.000   0.000
  0.000   0.000   0.000   1.587   0.000   0.000  -0.387  -0.000
  0.000   0.000   0.000   0.000   4.891   0.000   0.000  -1.470
 -0.000  -0.000  -1.470   0.000   0.000   0.457   0.000   0.000
  0.000   0.000   0.000  -0.387   0.000  -0.000   0.095   0.000
  0.000   0.000   0.000   0.000  -1.470   0.000   0.000   0.457


------------------------ aborting loop because EDIFF is reached ----------------------------------------


 


 total charge     
 
# of ion       s       p       d       tot
------------------------------------------
    1        0.740   1.413   0.000   2.154
    2        1.225   2.786   0.000   4.011
--------------------------------------------------
tot          1.965   4.200   0.000   6.165
 
    CHARGE:  cpu time    0.0040: real time    0.0040
    FORLOC:  cpu time    0.0001: real time    0.0002
    FORNL :  cpu time    0.0068: real time    0.0069
    STRESS:  cpu time    0.0746: real time    0.0751
    FORCOR:  cpu time    0.0020: real time    0.0020
    FORHAR:  cpu time    0.0006: real time    0.0006
    MIXING:  cpu time    0.0002: real time    0.0002
    OFIELD:  cpu time    0.0000: real time    0.0000

  FORCE on cell =-STRESS in cart. coord.  units (eV):
  Direction    XX          YY          ZZ          XY          YZ          ZX
  --------------------------------------------------------------------------------------
  Alpha Z     8.64846     8.64846     8.64846
  Ewald     392.78745   392.78745  -664.34157    -0.00000     0.00000    -0.00000
  Hartree   407.00106   407.00106  -378.16441    -0.00000    -0.00000     0.00000
  E(xc)     -31.54095   -31.54095   -32.48848     0.00000     0.00000     0.00000
  Local    -890.80752  -890.80714   935.97488    -0.00000     0.00000    -0.00005
  n-local   -15.43484   -14.65871   -14.97058     0.06546    -0.00020     0.00025
  augment     1.08501     1.08495     1.26227     0.00000    -0.00000    -0.00000
  Kinetic   129.19495   126.57515   144.05010     1.11878     0.00117    -0.00513
  Fock        0.00000     0.00000     0.00000     0.00000     0.00000     0.00000
  -------------------------------------------------------------------------------------
  Total       0.01195     0.01195    -0.02933     0.00000     0.00000    -0.00000
  in kB       0.46545     0.46545    -1.14226     0.00000     0.00000    -0.00000
  external pressure =       -0.07 kB  Pullay stress =        0.00 kB


 VOLUME and BASIS-vectors are now :
 -----------------------------------------------------------------------------
  energy-cutoff  :      500.00
  volume of cell :       41.15
      direct lattice vectors                 reciprocal lattice vectors
     1.256237318 -2.175866861  0.000000000     0.398013968 -0.229793472  0.000000000
     1.256237318  2.175866861  0.000000000     0.398013968  0.229793472  0.000000000
     0.000000000  0.000000000  7.526459174     0.000000000  0.000000000  0.132864602

  length of vectors
     2.512474636  2.512474636  7.526459174     0.459586943  0.459586943  0.132864602


 FORCES acting on ions
    electron-ion (+dipol)            ewald-force                    non-local-force                 convergence-correction
 -----------------------------------------------------------------------------------------------
   -.378E-13 -.122E-04 0.349E-14   0.462E-14 -.651E-11 0.610E-19   -.278E-16 0.555E-16 0.000E+00   0.100E-14 0.484E-07 -.179E-14
   0.165E-12 -.668E-06 -.124E-11   -.366E-14 0.651E-11 -.610E-19   0.694E-17 0.000E+00 0.000E+00   0.971E-15 0.248E-07 -.376E-14
 -----------------------------------------------------------------------------------------------
   0.128E-12 -.129E-04 -.124E-11   0.955E-15 0.101E-14 0.000E+00   -.208E-16 0.555E-16 0.000E+00   0.197E-14 0.732E-07 -.555E-14
 
 
 POSITION                                       TOTAL-FORCE (eV/Angst)
 -----------------------------------------------------------------------------------
      0.00000      0.00000      0.00000         0.000000      0.000000      0.000000
      1.25624      0.72529      0.00000         0.000000     -0.000000      0.000000
 -----------------------------------------------------------------------------------
    total drift:                                0.000000     -0.000013     -0.000000


--------------------------------------------------------------------------------------------------------



  FREE ENERGIE OF THE ION-ELECTRON SYSTEM (eV)
  ---------------------------------------------------
  free  energy   TOTEN  =       -17.59772842 eV

  energy  without entropy=      -17.59772842  energy(sigma->0) =      -17.59772842
 


--------------------------------------------------------------------------------------------------------


    POTLOK:  cpu time    0.0045: real time    0.0045


--------------------------------------------------------------------------------------------------------


 writing wavefunctions
     LOOP+:  cpu time    2.9372: real time    2.9637
    4ORBIT:  cpu time    0.0000: real time    0.0000
 


 total charge     
 
# of ion       s       p       d       tot
------------------------------------------
    1        0.740   1.413   0.000   2.154
    2        1.225   2.786   0.000   4.011
--------------------------------------------------
tot          1.965   4.200   0.000   6.165
 

 total amount of memory used by VASP MPI-rank0    35876. kBytes
=======================================================================

   base      :      30000. kBytes
   nonl-proj :       4181. kBytes
   fftplans  :        561. kBytes
   grid      :        600. kBytes
   one-center:          6. kBytes
   wavefun   :        528. kBytes
 
  
  
 General timing and accounting informations for this job:
 ========================================================
  
                  Total CPU time used (sec):        3.404
                            User time (sec):        3.141
                          System time (sec):        0.263
                         Elapsed time (sec):        3.714
  
                   Maximum memory used (kb):       74700.
                   Average memory used (kb):           0.
  
                          Minor page faults:        10694
                          Major page faults:            4
                 Voluntary context switches:         3604
