PROCAR lm decomposed
# of k-points:  140         # of bands:   20         # of ions:    2

 k-point     1 :    0.00000000 0.00000000 0.00000000     weight = 0.00714286

band     1 # energy  -19.86732033 # occ.  2.00000000
 
ion      s     py     pz     px    dxy    dyz    dz2    dxz  x2-y2    tot
    1  0.268  0.000  0.000  0.000  0.000  0.000  0.000  0.000  0.000  0.268
    2  0.507  0.000  0.000  0.000  0.000  0.000  0.000  0.000  0.000  0.507
tot    0.775  0.000  0.000  0.000  0.000  0.000  0.000  0.000  0.000  0.775
 
band     2 # energy   -7.45639865 # occ.  2.00000000
 
ion      s     py     pz     px    dxy    dyz    dz2    dxz  x2-y2    tot
    1  0.000  0.000  0.194  0.000  0.000  0.000  0.000  0.000  0.000  0.194
    2  0.000  0.000  0.320  0.000  0.000  0.000  0.000  0.000  0.000  0.320
tot    0.000  0.000  0.514  0.000  0.000  0.000  0.000  0.000  0.000  0.514
 
band     3 # energy   -3.60499264 # occ.  2.00000000
 
ion      s     py     pz     px    dxy    dyz    dz2    dxz  x2-y2    tot
    1  0.000  0.272  0.000  0.000  0.000  0.000  0.000  0.000  0.000  0.272
    2  0.000  0.628  0.000  0.000  0.000  0.000  0.000  0.000  0.000  0.628
tot    0.000  0.901  0.000  0.000  0.000  0.000  0.000  0.000  0.000  0.901
 
band     4 # energy   -3.60492819 # occ.  2.00000000
 
ion      s     py     pz     px    dxy    dyz    dz2    dxz  x2-y2    tot
    1  0.000  0.000  0.000  0.272  0.000  0.000  0.000  0.000  0.000  0.272
    2  0.000  0.000  0.000  0.628  0.000  0.000  0.000  0.000  0.000  0.628
tot    0.000  0.000  0.000  0.901  0.000  0.000  0.000  0.000  0.000  0.901
 
band     5 # energy    2.05725508 # occ.  0.00000000
 
ion      s     py     pz     px    dxy    dyz    dz2    dxz  x2-y2    tot
    1  0.000  0.000  0.000  0.000  0.000  0.000  0.000  0.000  0.000  0.000
    2  0.036  0.000  0.000  0.000  0.000  0.000  0.000  0.000  0.000  0.036
tot    0.036  0.000  0.000  0.000  0.000  0.000  0.000  0.000  0.000  0.036
 
band     6 # energy    5.20890764 # occ.  0.00000000
 
ion      s     py     pz     px    dxy    dyz    dz2    dxz  x2-y2    tot
    1  0.000  0.000  0.002  0.000  0.000  0.000  0.000  0.000  0.000  0.002
    2  0.000  0.000  0.135  0.000  0.000  0.000  0.000  0.000  0.000  0.135
tot    0.000  0.000  0.137  0.000  0.000  0.000  0.000  0.000  0.000  0.137
 
band     7 # energy    6.81668735 # occ.  0.00000000
 
ion      s     py     pz     px    dxy    dyz    dz2    dxz  x2-y2    tot
    1  0.022  0.000  0.000  0.000  0.000  0.000  0.000  0.000  0.000  0.022
    2  0.124  0.000  0.000  0.000  0.000  0.000  0.000  0.000  0.000  0.124
tot    0.146  0.000  0.000  0.000  0.000  0.000  0.000  0.000  0.000  0.146
 
band     8 # energy    9.25724477 # occ.  0.00000000
 
ion      s     py     pz     px    dxy    dyz    dz2    dxz  x2-y2    tot
    1  0.000  0.481  0.000  0.000  0.000  0.000  0.000  0.000  0.000  0.481
    2  0.000  0.107  0.000  0.000  0.000  0.000  0.000  0.000  0.000  0.107
tot    0.000  0.589  0.000  0.000  0.000  0.000  0.000  0.000  0.000  0.589
 
band     9 # energy    9.25724503 # occ.  0.00000000
 
ion      s     py     pz     px    dxy    dyz    dz2    dxz  x2-y2    tot
    1  0.000  0.000  0.000  0.481  0.000  0.000  0.000  0.000  0.000  0.481
    2  0.000  0.000  0.000  0.107  0.000  0.000  0.000  0.000  0.000  0.107
tot    0.000  0.000  0.000  0.589  0.000  0.000  0.000  0.000  0.000  0.589
 
band    10 # energy   10.76577337 # occ.  0.00000000
 
ion      s     py     pz     px    dxy    dyz    dz2    dxz  x2-y2    tot
    1  0.000  0.000  0.318  0.000  0.000  0.000  0.000  0.000  0.000  0.318
    2  0.000  0.000  0.343  0.000  0.000  0.000  0.000  0.000  0.000  0.343
tot    0.000  0.000  0.661  0.000  0.000  0.000  0.000  0.000  0.000  0.661
 
band    11 # energy   11.83639693 # occ.  0.00000000
 
ion      s     py     pz     px    dxy    dyz    dz2    dxz  x2-y2    tot
    1  0.281  0.000  0.000  0.000  0.000  0.000  0.000  0.000  0.000  0.281
    2  0.207  0.000  0.000  0.000  0.000  0.000  0.000  0.000  0.000  0.207
tot    0.488  0.000  0.000  0.000  0.000  0.000  0.000  0.000  0.000  0.488
 
band    12 # energy   17.25163946 # occ.  0.00000000
 
ion      s     py     pz     px    dxy    dyz    dz2    dxz  x2-y2    tot
    1  0.000  0.000  0.228  0.000  0.000  0.000  0.000  0.000  0.000  0.228
    2  0.000  0.000  0.003  0.000  0.000  0.000  0.000  0.000  0.000  0.003
tot    0.000  0.000  0.231  0.000  0.000  0.000  0.000  0.000  0.000  0.231
 
band    13 # energy   20.43959019 # occ.  0.00000000
 
ion      s     py     pz     px    dxy    dyz    dz2    dxz  x2-y2    tot
    1  0.018  0.000  0.000  0.000  0.000  0.000  0.000  0.000  0.000  0.018
    2  0.000  0.000  0.000  0.000  0.000  0.000  0.000  0.000  0.000  0.000
tot    0.018  0.000  0.000  0.000  0.000  0.000  0.000  0.000  0.000  0.018
 
band    14 # energy   23.26488690 # occ.  0.00000000
 
ion      s     py     pz     px    dxy    dyz    dz2    dxz  x2-y2    tot
    1  0.217  0.000  0.000  0.000  0.000  0.000  0.000  0.000  0.000  0.217
    2  0.005  0.000  0.000  0.000  0.000  0.000  0.000  0.000  0.000  0.005
tot    0.222  0.000  0.000  0.000  0.000  0.000  0.000  0.000  0.000  0.222
 
band    15 # energy   27.38410486 # occ.  0.00000000
 
ion      s     py     pz     px    dxy    dyz    dz2    dxz  x2-y2    tot
    1  0.000  0.000  0.000  0.000  0.000  0.000  0.000  0.000  0.000  0.000
    2  0.000  0.000  0.000  0.000  0.000  0.000  0.000  0.000  0.000  0.000
tot    0.000  0.000  0.000  0.000  0.000  0.000  0.000  0.000  0.000  0.000
 
band    16 # energy   27.38411807 # occ.  0.00000000
 
ion      s     py     pz     px    dxy    dyz    dz2    dxz  x2-y2    tot
    1  0.000  0.000  0.000  0.000  0.000  0.000  0.000  0.000  0.000  0.000
    2  0.000  0.000  0.000  0.000  0.000  0.000  0.000  0.000  0.000  0.000
tot    0.000  0.000  0.000  0.000  0.000  0.000  0.000  0.000  0.000  0.000
 
band    17 # energy   29.16736921 # occ.  0.00000000
 
ion      s     py     pz     px    dxy    dyz    dz2    dxz  x2-y2    tot
    1  0.000  0.000  0.070  0.000  0.000  0.000  0.000  0.000  0.000  0.070
    2  0.000  0.000  0.037  0.000  0.000  0.000  0.000  0.000  0.000  0.037
tot    0.000  0.000  0.107  0.000  0.000  0.000  0.000  0.000  0.000  0.107
 
band    18 # energy   30.43544601 # occ.  0.00000000
 
ion      s     py     pz     px    dxy    dyz    dz2    dxz  x2-y2    tot
    1  0.000  0.000  0.000  0.000  0.000  0.000  0.000  0.000  0.000  0.000
    2  0.000  0.000  0.000  0.000  0.000  0.000  0.000  0.000  0.000  0.000
tot    0.000  0.000  0.000  0.000  0.000  0.000  0.000  0.000  0.000  0.000
 
band    19 # energy   30.43545610 # occ.  0.00000000
 
ion      s     py     pz     px    dxy    dyz    dz2    dxz  x2-y2    tot
    1  0.000  0.000  0.000  0.000  0.000  0.000  0.000  0.000  0.000  0.000
    2  0.000  0.000  0.000  0.000  0.000  0.000  0.000  0.000  0.000  0.000
tot    0.000  0.000  0.000  0.000  0.000  0.000  0.000  0.000  0.000  0.000
 
band    20 # energy   33.06565165 # occ.  0.00000000
 
ion      s     py     pz     px    dxy    dyz    dz2    dxz  x2-y2    tot
    1  0.000  0.000  0.000  0.000  0.000  0.000  0.000  0.000  0.000  0.000
    2  0.000  0.004  0.000  0.027  0.000  0.000  0.000  0.000  0.000  0.031
tot    0.000  0.004  0.000  0.027  0.000  0.000  0.000  0.000  0.000  0.031
 

 k-point     2 :    0.02631579 0.00000000 0.00000000     weight = 0.00714286

band     1 # energy  -19.85407030 # occ.  2.00000000
 
ion      s     py     pz     px    dxy    dyz    dz2    dxz  x2-y2    tot
    1  0.267  0.000  0.000  0.001  0.000  0.000  0.000  0.000  0.000  0.268
    2  0.508  0.000  0.000  0.000  0.000  0.000  0.000  0.000  0.000  0.508
tot    0.774  0.000  0.000  0.001  0.000  0.000  0.000  0.000  0.000  0.775
 
band     2 # energy   -7.43859241 # occ.  2.00000000
 
ion      s     py     pz     px    dxy    dyz    dz2    dxz  x2-y2    tot
    1  0.000  0.000  0.194  0.000  0.000  0.000  0.000  0.000  0.000  0.194
    2  0.000  0.000  0.320  0.000  0.000  0.000  0.000  0.000  0.000  0.320
tot    0.000  0.000  0.514  0.000  0.000  0.000  0.000  0.000  0.000  0.514
 
band     3 # energy   -3.66320639 # occ.  2.00000000
 
ion      s     py     pz     px    dxy    dyz    dz2    dxz  x2-y2    tot
    1  0.002  0.068  0.000  0.203  0.000  0.000  0.000  0.000  0.000  0.273
    2  0.002  0.157  0.000  0.468  0.000  0.000  0.000  0.000  0.000  0.626
tot    0.004  0.225  0.000  0.671  0.000  0.000  0.000  0.000  0.000  0.900
 
band     4 # energy   -3.63187461 # occ.  2.00000000
 
ion      s     py     pz     px    dxy    dyz    dz2    dxz  x2-y2    tot
    1  0.000  0.205  0.000  0.069  0.000  0.000  0.000  0.000  0.000  0.274
    2  0.000  0.470  0.000  0.157  0.000  0.000  0.000  0.000  0.000  0.627
tot    0.000  0.675  0.000  0.226  0.000  0.000  0.000  0.000  0.000  0.901
 
band     5 # energy    2.08032595 # occ.  0.00000000
 
ion      s     py     pz     px    dxy    dyz    dz2    dxz  x2-y2    tot
    1  0.000  0.000  0.000  0.000  0.000  0.000  0.000  0.000  0.000  0.000
    2  0.036  0.000  0.000  0.000  0.000  0.000  0.000  0.000  0.000  0.036
tot    0.036  0.000  0.000  0.000  0.000  0.000  0.000  0.000  0.000  0.036
 
band     6 # energy    5.22561771 # occ.  0.00000000
 
ion      s     py     pz     px    dxy    dyz    dz2    dxz  x2-y2    tot
    1  0.000  0.000  0.002  0.000  0.000  0.000  0.000  0.000  0.000  0.002
    2  0.000  0.000  0.136  0.000  0.000  0.000  0.000  0.000  0.000  0.136
tot    0.000  0.000  0.138  0.000  0.000  0.000  0.000  0.000  0.000  0.138
 
band     7 # energy    6.84146004 # occ.  0.00000000
 
ion      s     py     pz     px    dxy    dyz    dz2    dxz  x2-y2    tot
    1  0.022  0.000  0.000  0.000  0.000  0.000  0.000  0.000  0.000  0.022
    2  0.123  0.000  0.000  0.001  0.000  0.000  0.000  0.000  0.000  0.124
tot    0.145  0.000  0.000  0.001  0.000  0.000  0.000  0.000  0.000  0.146
 
band     8 # energy    9.25003723 # occ.  0.00000000
 
ion      s     py     pz     px    dxy    dyz    dz2    dxz  x2-y2    tot
    1  0.000  0.119  0.000  0.358  0.000  0.000  0.000  0.000  0.000  0.478
    2  0.002  0.026  0.000  0.079  0.000  0.000  0.000  0.000  0.000  0.108
tot    0.002  0.146  0.000  0.437  0.000  0.000  0.000  0.000  0.000  0.585
 
band     9 # energy    9.31721114 # occ.  0.00000000
 
ion      s     py     pz     px    dxy    dyz    dz2    dxz  x2-y2    tot
    1  0.000  0.360  0.000  0.120  0.000  0.000  0.000  0.000  0.000  0.480
    2  0.000  0.082  0.000  0.027  0.000  0.000  0.000  0.000  0.000  0.109
tot    0.000  0.442  0.000  0.147  0.000  0.000  0.000  0.000  0.000  0.589
 
band    10 # energy   10.72937381 # occ.  0.00000000
 
ion      s     py     pz     px    dxy    dyz    dz2    dxz  x2-y2    tot
    1  0.000  0.000  0.320  0.000  0.000  0.000  0.000  0.000  0.000  0.320
    2  0.000  0.000  0.340  0.000  0.000  0.000  0.000  0.000  0.000  0.340
tot    0.000  0.000  0.660  0.000  0.000  0.000  0.000  0.000  0.000  0.660
 
band    11 # energy   11.87753814 # occ.  0.00000000
 
ion      s     py     pz     px    dxy    dyz    dz2    dxz  x2-y2    tot
    1  0.282  0.000  0.000  0.000  0.000  0.000  0.000  0.000  0.000  0.282
    2  0.204  0.001  0.000  0.004  0.000  0.000  0.000  0.000  0.000  0.209
tot    0.486  0.001  0.000  0.004  0.000  0.000  0.000  0.000  0.000  0.491
 
band    12 # energy   17.25276299 # occ.  0.00000000
 
ion      s     py     pz     px    dxy    dyz    dz2    dxz  x2-y2    tot
    1  0.000  0.000  0.225  0.000  0.000  0.000  0.000  0.000  0.000  0.225
    2  0.000  0.000  0.003  0.000  0.000  0.000  0.000  0.000  0.000  0.003
tot    0.000  0.000  0.229  0.000  0.000  0.000  0.000  0.000  0.000  0.229
 
band    13 # energy   20.46873919 # occ.  0.00000000
 
ion      s     py     pz     px    dxy    dyz    dz2    dxz  x2-y2    tot
    1  0.019  0.000  0.000  0.000  0.000  0.000  0.000  0.000  0.000  0.019
    2  0.000  0.000  0.000  0.000  0.000  0.000  0.000  0.000  0.000  0.000
tot    0.019  0.000  0.000  0.000  0.000  0.000  0.000  0.000  0.000  0.019
 
band    14 # energy   23.29399459 # occ.  0.00000000
 
ion      s     py     pz     px    dxy    dyz    dz2    dxz  x2-y2    tot
    1  0.212  0.001  0.000  0.004  0.000  0.000  0.000  0.000  0.000  0.217
    2  0.005  0.000  0.000  0.001  0.000  0.000  0.000  0.000  0.000  0.006
tot    0.217  0.001  0.000  0.004  0.000  0.000  0.000  0.000  0.000  0.223
 
band    15 # energy   27.18196392 # occ.  0.00000000
 
ion      s     py     pz     px    dxy    dyz    dz2    dxz  x2-y2    tot
    1  0.000  0.000  0.001  0.000  0.000  0.000  0.000  0.000  0.000  0.001
    2  0.000  0.000  0.004  0.000  0.000  0.000  0.000  0.000  0.000  0.004
tot    0.000  0.000  0.005  0.000  0.000  0.000  0.000  0.000  0.000  0.005
 
band    16 # energy   27.19677533 # occ.  0.00000000
 
ion      s     py     pz     px    dxy    dyz    dz2    dxz  x2-y2    tot
    1  0.000  0.000  0.000  0.000  0.000  0.000  0.000  0.000  0.000  0.000
    2  0.000  0.000  0.000  0.000  0.000  0.000  0.000  0.000  0.000  0.000
tot    0.000  0.000  0.000  0.000  0.000  0.000  0.000  0.000  0.000  0.000
 
band    17 # energy   28.81317943 # occ.  0.00000000
 
ion      s     py     pz     px    dxy    dyz    dz2    dxz  x2-y2    tot
    1  0.000  0.000  0.053  0.000  0.000  0.000  0.000  0.000  0.000  0.053
    2  0.000  0.000  0.025  0.000  0.000  0.000  0.000  0.000  0.000  0.025
tot    0.000  0.000  0.078  0.000  0.000  0.000  0.000  0.000  0.000  0.078
 
band    18 # energy   30.66221071 # occ.  0.00000000
 
ion      s     py     pz     px    dxy    dyz    dz2    dxz  x2-y2    tot
    1  0.000  0.000  0.000  0.000  0.000  0.000  0.000  0.000  0.000  0.000
    2  0.000  0.000  0.000  0.000  0.000  0.000  0.000  0.000  0.000  0.000
tot    0.000  0.000  0.000  0.000  0.000  0.000  0.000  0.000  0.000  0.000
 
band    19 # energy   30.98710675 # occ.  0.00000000
 
ion      s     py     pz     px    dxy    dyz    dz2    dxz  x2-y2    tot
    1  0.000  0.000  0.021  0.000  0.000  0.000  0.000  0.000  0.000  0.021
    2  0.000  0.000  0.013  0.000  0.000  0.000  0.000  0.000  0.000  0.013
tot    0.000  0.000  0.033  0.000  0.000  0.000  0.000  0.000  0.000  0.033
 
band    20 # energy   31.99243413 # occ.  0.00000000
 
ion      s     py     pz     px    dxy    dyz    dz2    dxz  x2-y2    tot
    1  0.004  0.001  0.000  0.003  0.000  0.000  0.000  0.000  0.000  0.008
    2  0.004  0.004  0.000  0.011  0.000  0.000  0.000  0.000  0.000  0.019
tot    0.008  0.005  0.000  0.014  0.000  0.000  0.000  0.000  0.000  0.027
 

 k-point     3 :    0.05263158 0.00000000 0.00000000     weight = 0.00714286

band     1 # energy  -19.81431469 # occ.  2.00000000
 
ion      s     py     pz     px    dxy    dyz    dz2    dxz  x2-y2    tot
    1  0.265  0.001  0.000  0.002  0.000  0.000  0.000  0.000  0.000  0.267
    2  0.508  0.000  0.000  0.000  0.000  0.000  0.000  0.000  0.000  0.509
tot    0.773  0.001  0.000  0.003  0.000  0.000  0.000  0.000  0.000  0.776
 
band     2 # energy   -7.38524529 # occ.  2.00000000
 
ion      s     py     pz     px    dxy    dyz    dz2    dxz  x2-y2    tot
    1  0.000  0.000  0.193  0.000  0.000  0.000  0.000  0.000  0.000  0.193
    2  0.000  0.000  0.321  0.000  0.000  0.000  0.000  0.000  0.000  0.321
tot    0.000  0.000  0.514  0.000  0.000  0.000  0.000  0.000  0.000  0.514
 
band     3 # energy   -3.83425959 # occ.  2.00000000
 
ion      s     py     pz     px    dxy    dyz    dz2    dxz  x2-y2    tot
    1  0.009  0.067  0.000  0.200  0.000  0.000  0.000  0.000  0.000  0.276
    2  0.007  0.153  0.000  0.460  0.000  0.000  0.000  0.000  0.000  0.620
tot    0.016  0.220  0.000  0.660  0.000  0.000  0.000  0.000  0.000  0.896
 
band     4 # energy   -3.71052371 # occ.  2.00000000
 
ion      s     py     pz     px    dxy    dyz    dz2    dxz  x2-y2    tot
    1  0.000  0.208  0.000  0.069  0.000  0.000  0.000  0.000  0.000  0.277
    2  0.000  0.467  0.000  0.156  0.000  0.000  0.000  0.000  0.000  0.623
tot    0.000  0.675  0.000  0.225  0.000  0.000  0.000  0.000  0.000  0.900
 
band     5 # energy    2.14908953 # occ.  0.00000000
 
ion      s     py     pz     px    dxy    dyz    dz2    dxz  x2-y2    tot
    1  0.000  0.000  0.000  0.000  0.000  0.000  0.000  0.000  0.000  0.000
    2  0.035  0.000  0.000  0.001  0.000  0.000  0.000  0.000  0.000  0.036
tot    0.035  0.000  0.000  0.001  0.000  0.000  0.000  0.000  0.000  0.037
 
band     6 # energy    5.27535559 # occ.  0.00000000
 
ion      s     py     pz     px    dxy    dyz    dz2    dxz  x2-y2    tot
    1  0.000  0.000  0.002  0.000  0.000  0.000  0.000  0.000  0.000  0.002
    2  0.000  0.000  0.139  0.000  0.000  0.000  0.000  0.000  0.000  0.139
tot    0.000  0.000  0.141  0.000  0.000  0.000  0.000  0.000  0.000  0.141
 
band     7 # energy    6.91396141 # occ.  0.00000000
 
ion      s     py     pz     px    dxy    dyz    dz2    dxz  x2-y2    tot
    1  0.021  0.000  0.000  0.001  0.000  0.000  0.000  0.000  0.000  0.022
    2  0.120  0.001  0.000  0.003  0.000  0.000  0.000  0.000  0.000  0.124
tot    0.141  0.001  0.000  0.004  0.000  0.000  0.000  0.000  0.000  0.146
 
band     8 # energy    9.22987894 # occ.  0.00000000
 
ion      s     py     pz     px    dxy    dyz    dz2    dxz  x2-y2    tot
    1  0.001  0.117  0.000  0.350  0.000  0.000  0.000  0.000  0.000  0.468
    2  0.007  0.025  0.000  0.075  0.000  0.000  0.000  0.000  0.000  0.108
tot    0.008  0.142  0.000  0.426  0.000  0.000  0.000  0.000  0.000  0.576
 
band     9 # energy    9.49507954 # occ.  0.00000000
 
ion      s     py     pz     px    dxy    dyz    dz2    dxz  x2-y2    tot
    1  0.000  0.358  0.000  0.119  0.000  0.000  0.000  0.000  0.000  0.477
    2  0.000  0.086  0.000  0.029  0.000  0.000  0.000  0.000  0.000  0.114
tot    0.000  0.443  0.000  0.148  0.000  0.000  0.000  0.000  0.000  0.591
 
band    10 # energy   10.62158109 # occ.  0.00000000
 
ion      s     py     pz     px    dxy    dyz    dz2    dxz  x2-y2    tot
    1  0.000  0.000  0.325  0.000  0.000  0.000  0.000  0.000  0.000  0.325
    2  0.000  0.000  0.331  0.000  0.000  0.000  0.000  0.000  0.000  0.331
tot    0.000  0.000  0.656  0.000  0.000  0.000  0.000  0.000  0.000  0.656
 
band    11 # energy   11.99866810 # occ.  0.00000000
 
ion      s     py     pz     px    dxy    dyz    dz2    dxz  x2-y2    tot
    1  0.284  0.000  0.000  0.001  0.000  0.000  0.000  0.000  0.000  0.285
    2  0.196  0.004  0.000  0.013  0.000  0.000  0.000  0.000  0.000  0.214
tot    0.480  0.005  0.000  0.014  0.000  0.000  0.000  0.000  0.000  0.499
 
band    12 # energy   17.25688217 # occ.  0.00000000
 
ion      s     py     pz     px    dxy    dyz    dz2    dxz  x2-y2    tot
    1  0.000  0.000  0.218  0.000  0.000  0.000  0.000  0.000  0.000  0.218
    2  0.000  0.000  0.005  0.000  0.000  0.000  0.000  0.000  0.000  0.005
tot    0.000  0.000  0.223  0.000  0.000  0.000  0.000  0.000  0.000  0.223
 
band    13 # energy   20.55413173 # occ.  0.00000000
 
ion      s     py     pz     px    dxy    dyz    dz2    dxz  x2-y2    tot
    1  0.022  0.000  0.000  0.000  0.000  0.000  0.000  0.000  0.000  0.022
    2  0.000  0.000  0.000  0.001  0.000  0.000  0.000  0.000  0.000  0.001
tot    0.022  0.000  0.000  0.001  0.000  0.000  0.000  0.000  0.000  0.023
 
band    14 # energy   23.37959542 # occ.  0.00000000
 
ion      s     py     pz     px    dxy    dyz    dz2    dxz  x2-y2    tot
    1  0.197  0.005  0.000  0.015  0.000  0.000  0.000  0.000  0.000  0.217
    2  0.005  0.001  0.000  0.003  0.000  0.000  0.000  0.000  0.000  0.008
tot    0.202  0.006  0.000  0.017  0.000  0.000  0.000  0.000  0.000  0.225
 
band    15 # energy   26.52798726 # occ.  0.00000000
 
ion      s     py     pz     px    dxy    dyz    dz2    dxz  x2-y2    tot
    1  0.000  0.000  0.006  0.000  0.000  0.000  0.000  0.000  0.000  0.006
    2  0.000  0.000  0.011  0.000  0.000  0.000  0.000  0.000  0.000  0.011
tot    0.000  0.000  0.017  0.000  0.000  0.000  0.000  0.000  0.000  0.017
 
band    16 # energy   26.74804275 # occ.  0.00000000
 
ion      s     py     pz     px    dxy    dyz    dz2    dxz  x2-y2    tot
    1  0.000  0.000  0.000  0.000  0.000  0.000  0.000  0.000  0.000  0.000
    2  0.000  0.000  0.000  0.000  0.000  0.000  0.000  0.000  0.000  0.000
tot    0.000  0.000  0.000  0.000  0.000  0.000  0.000  0.000  0.000  0.000
 
band    17 # energy   28.55552913 # occ.  0.00000000
 
ion      s     py     pz     px    dxy    dyz    dz2    dxz  x2-y2    tot
    1  0.000  0.000  0.041  0.000  0.000  0.000  0.000  0.000  0.000  0.041
    2  0.000  0.000  0.019  0.000  0.000  0.000  0.000  0.000  0.000  0.019
tot    0.000  0.000  0.059  0.000  0.000  0.000  0.000  0.000  0.000  0.059
 
band    18 # energy   30.55030091 # occ.  0.00000000
 
ion      s     py     pz     px    dxy    dyz    dz2    dxz  x2-y2    tot
    1  0.007  0.001  0.000  0.003  0.000  0.000  0.000  0.000  0.000  0.011
    2  0.005  0.002  0.000  0.007  0.000  0.000  0.000  0.000  0.000  0.014
tot    0.012  0.003  0.000  0.010  0.000  0.000  0.000  0.000  0.000  0.025
 
band    19 # energy   31.22833685 # occ.  0.00000000
 
ion      s     py     pz     px    dxy    dyz    dz2    dxz  x2-y2    tot
    1  0.000  0.000  0.000  0.000  0.000  0.000  0.000  0.000  0.000  0.000
    2  0.000  0.000  0.000  0.000  0.000  0.000  0.000  0.000  0.000  0.000
tot    0.000  0.000  0.000  0.000  0.000  0.000  0.000  0.000  0.000  0.000
 
band    20 # energy   31.83537346 # occ.  0.00000000
 
ion      s     py     pz     px    dxy    dyz    dz2    dxz  x2-y2    tot
    1  0.000  0.007  0.000  0.002  0.000  0.000  0.000  0.000  0.000  0.010
    2  0.000  0.013  0.000  0.004  0.000  0.000  0.000  0.000  0.000  0.017
tot    0.000  0.020  0.000  0.007  0.000  0.000  0.000  0.000  0.000  0.027
 

 k-point     4 :    0.07894737 0.00000000 0.00000000     weight = 0.00714286

band     1 # energy  -19.74828933 # occ.  2.00000000
 
ion      s     py     pz     px    dxy    dyz    dz2    dxz  x2-y2    tot
    1  0.261  0.002  0.000  0.005  0.000  0.000  0.000  0.000  0.000  0.267
    2  0.508  0.000  0.000  0.001  0.000  0.000  0.000  0.000  0.000  0.510
tot    0.770  0.002  0.000  0.006  0.000  0.000  0.000  0.000  0.000  0.777
 
band     2 # energy   -7.29658271 # occ.  2.00000000
 
ion      s     py     pz     px    dxy    dyz    dz2    dxz  x2-y2    tot
    1  0.000  0.000  0.192  0.000  0.000  0.000  0.000  0.000  0.000  0.192
    2  0.000  0.000  0.323  0.000  0.000  0.000  0.000  0.000  0.000  0.323
tot    0.000  0.000  0.515  0.000  0.000  0.000  0.000  0.000  0.000  0.515
 
band     3 # energy   -4.10797023 # occ.  2.00000000
 
ion      s     py     pz     px    dxy    dyz    dz2    dxz  x2-y2    tot
    1  0.019  0.065  0.000  0.196  0.000  0.000  0.000  0.000  0.000  0.281
    2  0.014  0.149  0.000  0.447  0.000  0.000  0.000  0.000  0.000  0.610
tot    0.033  0.214  0.000  0.643  0.000  0.000  0.000  0.000  0.000  0.891
 
band     4 # energy   -3.83585483 # occ.  2.00000000
 
ion      s     py     pz     px    dxy    dyz    dz2    dxz  x2-y2    tot
    1  0.000  0.212  0.000  0.071  0.000  0.000  0.000  0.000  0.000  0.283
    2  0.000  0.463  0.000  0.154  0.000  0.000  0.000  0.000  0.000  0.617
tot    0.000  0.674  0.000  0.225  0.000  0.000  0.000  0.000  0.000  0.899
 
band     5 # energy    2.26242076 # occ.  0.00000000
 
ion      s     py     pz     px    dxy    dyz    dz2    dxz  x2-y2    tot
    1  0.000  0.000  0.000  0.000  0.000  0.000  0.000  0.000  0.000  0.000
    2  0.033  0.001  0.000  0.003  0.000  0.000  0.000  0.000  0.000  0.036
tot    0.033  0.001  0.000  0.003  0.000  0.000  0.000  0.000  0.000  0.037
 
band     6 # energy    5.35658837 # occ.  0.00000000
 
ion      s     py     pz     px    dxy    dyz    dz2    dxz  x2-y2    tot
    1  0.000  0.000  0.001  0.000  0.000  0.000  0.000  0.000  0.000  0.001
    2  0.000  0.000  0.144  0.000  0.000  0.000  0.000  0.000  0.000  0.144
tot    0.000  0.000  0.145  0.000  0.000  0.000  0.000  0.000  0.000  0.145
 
band     7 # energy    7.02905332 # occ.  0.00000000
 
ion      s     py     pz     px    dxy    dyz    dz2    dxz  x2-y2    tot
    1  0.019  0.001  0.000  0.003  0.000  0.000  0.000  0.000  0.000  0.024
    2  0.117  0.002  0.000  0.005  0.000  0.000  0.000  0.000  0.000  0.124
tot    0.136  0.003  0.000  0.008  0.000  0.000  0.000  0.000  0.000  0.148
 
band     8 # energy    9.20151245 # occ.  0.00000000
 
ion      s     py     pz     px    dxy    dyz    dz2    dxz  x2-y2    tot
    1  0.004  0.112  0.000  0.336  0.000  0.000  0.000  0.000  0.000  0.452
    2  0.014  0.023  0.000  0.070  0.000  0.000  0.000  0.000  0.000  0.107
tot    0.018  0.135  0.000  0.406  0.000  0.000  0.000  0.000  0.000  0.560
 
band     9 # energy    9.78486589 # occ.  0.00000000
 
ion      s     py     pz     px    dxy    dyz    dz2    dxz  x2-y2    tot
    1  0.000  0.354  0.000  0.118  0.000  0.000  0.000  0.000  0.000  0.471
    2  0.000  0.092  0.000  0.031  0.000  0.000  0.000  0.000  0.000  0.122
tot    0.000  0.445  0.000  0.148  0.000  0.000  0.000  0.000  0.000  0.594
 
band    10 # energy   10.44459988 # occ.  0.00000000
 
ion      s     py     pz     px    dxy    dyz    dz2    dxz  x2-y2    tot
    1  0.000  0.000  0.333  0.000  0.000  0.000  0.000  0.000  0.000  0.333
    2  0.000  0.000  0.316  0.000  0.000  0.000  0.000  0.000  0.000  0.316
tot    0.000  0.000  0.649  0.000  0.000  0.000  0.000  0.000  0.000  0.649
 
band    11 # energy   12.19340587 # occ.  0.00000000
 
ion      s     py     pz     px    dxy    dyz    dz2    dxz  x2-y2    tot
    1  0.285  0.001  0.000  0.002  0.000  0.000  0.000  0.000  0.000  0.289
    2  0.183  0.009  0.000  0.028  0.000  0.000  0.000  0.000  0.000  0.221
tot    0.469  0.010  0.000  0.031  0.000  0.000  0.000  0.000  0.000  0.510
 
band    12 # energy   17.26569330 # occ.  0.00000000
 
ion      s     py     pz     px    dxy    dyz    dz2    dxz  x2-y2    tot
    1  0.000  0.000  0.207  0.000  0.000  0.000  0.000  0.000  0.000  0.207
    2  0.000  0.000  0.007  0.000  0.000  0.000  0.000  0.000  0.000  0.007
tot    0.000  0.000  0.214  0.000  0.000  0.000  0.000  0.000  0.000  0.214
 
band    13 # energy   20.68993205 # occ.  0.00000000
 
ion      s     py     pz     px    dxy    dyz    dz2    dxz  x2-y2    tot
    1  0.027  0.000  0.000  0.000  0.000  0.000  0.000  0.000  0.000  0.028
    2  0.000  0.000  0.000  0.001  0.000  0.000  0.000  0.000  0.000  0.002
tot    0.027  0.000  0.000  0.001  0.000  0.000  0.000  0.000  0.000  0.029
 
band    14 # energy   23.51499467 # occ.  0.00000000
 
ion      s     py     pz     px    dxy    dyz    dz2    dxz  x2-y2    tot
    1  0.173  0.011  0.000  0.032  0.000  0.000  0.000  0.000  0.000  0.216
    2  0.004  0.002  0.000  0.006  0.000  0.000  0.000  0.000  0.000  0.013
tot    0.178  0.013  0.000  0.039  0.000  0.000  0.000  0.000  0.000  0.229
 
band    15 # energy   25.61518156 # occ.  0.00000000
 
ion      s     py     pz     px    dxy    dyz    dz2    dxz  x2-y2    tot
    1  0.000  0.000  0.011  0.000  0.000  0.000  0.000  0.000  0.000  0.011
    2  0.000  0.000  0.014  0.000  0.000  0.000  0.000  0.000  0.000  0.014
tot    0.000  0.000  0.025  0.000  0.000  0.000  0.000  0.000  0.000  0.025
 
band    16 # energy   26.19404181 # occ.  0.00000000
 
ion      s     py     pz     px    dxy    dyz    dz2    dxz  x2-y2    tot
    1  0.000  0.000  0.000  0.000  0.000  0.000  0.000  0.000  0.000  0.000
    2  0.000  0.000  0.000  0.000  0.000  0.000  0.000  0.000  0.000  0.000
tot    0.000  0.000  0.000  0.000  0.000  0.000  0.000  0.000  0.000  0.000
 
band    17 # energy   28.55576116 # occ.  0.00000000
 
ion      s     py     pz     px    dxy    dyz    dz2    dxz  x2-y2    tot
    1  0.000  0.000  0.037  0.000  0.000  0.000  0.000  0.000  0.000  0.037
    2  0.000  0.000  0.023  0.000  0.000  0.000  0.000  0.000  0.000  0.023
tot    0.000  0.000  0.060  0.000  0.000  0.000  0.000  0.000  0.000  0.060
 
band    18 # energy   29.11495219 # occ.  0.00000000
 
ion      s     py     pz     px    dxy    dyz    dz2    dxz  x2-y2    tot
    1  0.011  0.000  0.000  0.001  0.000  0.000  0.000  0.000  0.000  0.013
    2  0.006  0.002  0.000  0.005  0.000  0.000  0.000  0.000  0.000  0.012
tot    0.017  0.002  0.000  0.006  0.000  0.000  0.000  0.000  0.000  0.025
 
band    19 # energy   31.13928515 # occ.  0.00000000
 
ion      s     py     pz     px    dxy    dyz    dz2    dxz  x2-y2    tot
    1  0.000  0.008  0.000  0.003  0.000  0.000  0.000  0.000  0.000  0.011
    2  0.000  0.012  0.000  0.004  0.000  0.000  0.000  0.000  0.000  0.015
tot    0.000  0.020  0.000  0.007  0.000  0.000  0.000  0.000  0.000  0.026
 
band    20 # energy   31.88162518 # occ.  0.00000000
 
ion      s     py     pz     px    dxy    dyz    dz2    dxz  x2-y2    tot
    1  0.012  0.000  0.000  0.000  0.000  0.000  0.000  0.000  0.000  0.012
    2  0.007  0.001  0.000  0.002  0.000  0.000  0.000  0.000  0.000  0.010
tot    0.019  0.001  0.000  0.002  0.000  0.000  0.000  0.000  0.000  0.022
 

 k-point     5 :    0.10526316 0.00000000 0.00000000     weight = 0.00714286

band     1 # energy  -19.65626801 # occ.  2.00000000
 
ion      s     py     pz     px    dxy    dyz    dz2    dxz  x2-y2    tot
    1  0.256  0.003  0.000  0.008  0.000  0.000  0.000  0.000  0.000  0.267
    2  0.510  0.001  0.000  0.002  0.000  0.000  0.000  0.000  0.000  0.512
tot    0.765  0.003  0.000  0.010  0.000  0.000  0.000  0.000  0.000  0.779
 
band     2 # energy   -7.17299490 # occ.  2.00000000
 
ion      s     py     pz     px    dxy    dyz    dz2    dxz  x2-y2    tot
    1  0.000  0.000  0.191  0.000  0.000  0.000  0.000  0.000  0.000  0.191
    2  0.000  0.000  0.325  0.000  0.000  0.000  0.000  0.000  0.000  0.325
tot    0.000  0.000  0.516  0.000  0.000  0.000  0.000  0.000  0.000  0.516
 
band     3 # energy   -4.46981580 # occ.  2.00000000
 