<?xml version="1.0" encoding="ISO-8859-1"?>
<modeling>
 <generator>
  <i name="program" type="string">vasp </i>
  <i name="version" type="string">5.4.4.18Apr17-6-g9f103f2a35  </i>
  <i name="subversion" type="string">(build May 10 2019 17:57:18) complex            parallel </i>
  <i name="platform" type="string">LinuxIFC </i>
  <i name="date" type="string">2024 07 16 </i>
  <i name="time" type="string">00:27:08 </i>
 </generator>
 <incar>
  <i type="string" name="SYSTEM"> BiFeO3</i>
  <i type="string" name="PREC">normal</i>
  <i type="logical" name="ADDGRID"> T  </i>
  <i type="int" name="ISPIN">     1</i>
  <i type="int" name="ICHARG">    11</i>
  <i name="EDIFF">      0.00010000</i>
  <i name="ENCUT">    500.00000000</i>
  <i type="logical" name="LREAL"> F  </i>
  <i type="logical" name="LPLANE"> T  </i>
  <i type="int" name="ISMEAR">     0</i>
  <i name="SIGMA">      0.05000000</i>
  <i type="int" name="NWRITE">     2</i>
  <i type="int" name="LORBIT">    11</i>
  <v type="int" name="KPOINT_BSE">    -1     0     0     0</v>
 </incar>
 <structure name="primitive_cell" >
  <crystal>
   <varray name="basis" >
    <v>       1.25623732      -2.17586686       0.00000000 </v>
    <v>       1.25623732       2.17586686       0.00000000 </v>
    <v>       0.00000000       0.00000000       7.52645917 </v>
   </varray>
   <i name="volume">     41.14572454 </i>
   <varray name="rec_basis" >
    <v>       0.39801397      -0.22979347       0.00000000 </v>
    <v>       0.39801397       0.22979347       0.00000000 </v>
    <v>       0.00000000       0.00000000       0.13286460 </v>
   </varray>
  </crystal>
  <varray name="positions" >
   <v>       0.00000000       0.00000000       0.00000000 </v>
   <v>       0.33333333      -0.33333333       0.00000000 </v>
  </varray>
 </structure>
 <varray name="primitive_index" >
  <v type="int" >        1 </v>
  <v type="int" >        2 </v>
 </varray>
 <kpoints>
  <generation param="listgenerated">
   <i name="divisions" type="int">      20 </i>
   <v>       0.00000000       0.00000000       0.00000000 </v>
   <v>       0.50000000       0.00000000       0.00000000 </v>
   <v>       0.30000000       0.30000000       0.00000000 </v>
   <v>       0.00000000       0.00000000       0.00000000 </v>
   <v>       0.00000000       0.00000000       0.50000000 </v>
   <v>       0.50000000       0.00000000       0.50000000 </v>
   <v>       0.30000000       0.30000000       0.50000000 </v>
   <v>       0.00000000       0.00000000       0.50000000 </v>
  </generation>
  <varray name="kpointlist" >
   <v>       0.00000000       0.00000000       0.00000000 </v>
   <v>       0.02631579       0.00000000       0.00000000 </v>
   <v>       0.05263158       0.00000000       0.00000000 </v>
   <v>       0.07894737       0.00000000       0.00000000 </v>
   <v>       0.10526316       0.00000000       0.00000000 </v>
   <v>       0.13157895       0.00000000       0.00000000 </v>
   <v>       0.15789474       0.00000000       0.00000000 </v>
   <v>       0.18421053       0.00000000       0.00000000 </v>
   <v>       0.21052632       0.00000000       0.00000000 </v>
   <v>       0.23684211       0.00000000       0.00000000 </v>
   <v>       0.26315789       0.00000000       0.00000000 </v>
   <v>       0.28947368       0.00000000       0.00000000 </v>
   <v>       0.31578947       0.00000000       0.00000000 </v>
   <v>       0.34210526       0.00000000       0.00000000 </v>
   <v>       0.36842105       0.00000000       0.00000000 </v>
   <v>       0.39473684       0.00000000       0.00000000 </v>
   <v>       0.42105263       0.00000000       0.00000000 </v>
   <v>       0.44736842       0.00000000       0.00000000 </v>
   <v>       0.47368421       0.00000000       0.00000000 </v>
   <v>       0.50000000       0.00000000       0.00000000 </v>
   <v>       0.50000000       0.00000000       0.00000000 </v>
   <v>       0.48947368       0.01578947       0.00000000 </v>
   <v>       0.47894737       0.03157895       0.00000000 </v>
   <v>       0.46842105       0.04736842       0.00000000 </v>
   <v>       0.45789474       0.06315789       0.00000000 </v>
   <v>       0.44736842       0.07894737       0.00000000 </v>
   <v>       0.43684211       0.09473684       0.00000000 </v>
   <v>       0.42631579       0.11052632       0.00000000 </v>
   <v>       0.41578947       0.12631579       0.00000000 </v>
   <v>       0.40526316       0.14210526       0.00000000 </v>
   <v>       0.39473684       0.15789474       0.00000000 </v>
   <v>       0.38421053       0.17368421       0.00000000 </v>
   <v>       0.37368421       0.18947368       0.00000000 </v>
   <v>       0.36315789       0.20526316       0.00000000 </v>
   <v>       0.35263158       0.22105263       0.00000000 </v>
   <v>       0.34210526       0.23684211       0.00000000 </v>
   <v>       0.33157895       0.25263158       0.00000000 </v>
   <v>       0.32105263       0.26842105       0.00000000 </v>
   <v>       0.31052632       0.28421053       0.00000000 </v>
   <v>       0.30000000       0.30000000       0.00000000 </v>
   <v>       0.30000000       0.30000000       0.00000000 </v>
   <v>       0.28421053       0.28421053       0.00000000 </v>
   <v>       0.26842105       0.26842105       0.00000000 </v>
   <v>       0.25263158       0.25263158       0.00000000 </v>
   <v>       0.23684211       0.23684211       0.00000000 </v>
   <v>       0.22105263       0.22105263       0.00000000 </v>
   <v>       0.20526316       0.20526316       0.00000000 </v>
   <v>       0.18947368       0.18947368       0.00000000 </v>
   <v>       0.17368421       0.17368421       0.00000000 </v>
   <v>       0.15789474       0.15789474       0.00000000 </v>
   <v>       0.14210526       0.14210526       0.00000000 </v>
   <v>       0.12631579       0.12631579       0.00000000 </v>
   <v>       0.11052632       0.11052632       0.00000000 </v>
   <v>       0.09473684       0.09473684       0.00000000 </v>
   <v>       0.07894737       0.07894737       0.00000000 </v>
   <v>       0.06315789       0.06315789       0.00000000 </v>
   <v>       0.04736842       0.04736842       0.00000000 </v>
   <v>       0.03157895       0.03157895       0.00000000 </v>
   <v>       0.01578947       0.01578947       0.00000000 </v>
   <v>       0.00000000       0.00000000       0.00000000 </v>
   <v>       0.00000000       0.00000000       0.00000000 </v>
   <v>       0.00000000       0.00000000       0.02631579 </v>
   <v>       0.00000000       0.00000000       0.05263158 </v>
   <v>       0.00000000       0.00000000       0.07894737 </v>
   <v>       0.00000000       0.00000000       0.10526316 </v>
   <v>       0.00000000       0.00000000       0.13157895 </v>
   <v>       0.00000000       0.00000000       0.15789474 </v>
   <v>       0.00000000       0.00000000       0.18421053 </v>
   <v>       0.00000000       0.00000000       0.21052632 </v>
   <v>       0.00000000       0.00000000       0.23684211 </v>
   <v>       0.00000000       0.00000000       0.26315789 </v>
   <v>       0.00000000       0.00000000       0.28947368 </v>
   <v>       0.00000000       0.00000000       0.31578947 </v>
   <v>       0.00000000       0.00000000       0.34210526 </v>
   <v>       0.00000000       0.00000000       0.36842105 </v>
   <v>       0.00000000       0.00000000       0.39473684 </v>
   <v>       0.00000000       0.00000000       0.42105263 </v>
   <v>       0.00000000       0.00000000       0.44736842 </v>
   <v>       0.00000000       0.00000000       0.47368421 </v>
   <v>       0.00000000       0.00000000       0.50000000 </v>
   <v>       0.00000000       0.00000000       0.50000000 </v>
   <v>       0.02631579       0.00000000       0.50000000 </v>
   <v>       0.05263158       0.00000000       0.50000000 </v>
   <v>       0.07894737       0.00000000       0.50000000 </v>
   <v>       0.10526316       0.00000000       0.50000000 </v>
   <v>       0.13157895       0.00000000       0.50000000 </v>
   <v>       0.15789474       0.00000000       0.50000000 </v>
   <v>       0.18421053       0.00000000       0.50000000 </v>
   <v>       0.21052632       0.00000000       0.50000000 </v>
   <v>       0.23684211       0.00000000       0.50000000 </v>
   <v>       0.26315789       0.00000000       0.50000000 </v>
   <v>       0.28947368       0.00000000       0.50000000 </v>
   <v>       0.31578947       0.00000000       0.50000000 </v>
   <v>       0.34210526       0.00000000       0.50000000 </v>
   <v>       0.36842105       0.00000000       0.50000000 </v>
   <v>       0.39473684       0.00000000       0.50000000 </v>
   <v>       0.42105263       0.00000000       0.50000000 </v>
   <v>       0.44736842       0.00000000       0.50000000 </v>
   <v>       0.47368421       0.00000000       0.50000000 </v>
   <v>       0.50000000       0.00000000       0.50000000 </v>
   <v>       0.50000000       0.00000000       0.50000000 </v>
   <v>       0.48947368       0.01578947       0.50000000 </v>
   <v>       0.47894737       0.03157895       0.50000000 </v>
   <v>       0.46842105       0.04736842       0.50000000 </v>
   <v>       0.45789474       0.06315789       0.50000000 </v>
   <v>       0.44736842       0.07894737       0.50000000 </v>
   <v>       0.43684211       0.09473684       0.50000000 </v>
   <v>       0.42631579       0.11052632       0.50000000 </v>
   <v>       0.41578947       0.12631579       0.50000000 </v>
   <v>       0.40526316       0.14210526       0.50000000 </v>
   <v>       0.39473684       0.15789474       0.50000000 </v>
   <v>       0.38421053       0.17368421       0.50000000 </v>
   <v>       0.37368421       0.18947368       0.50000000 </v>
   <v>       0.36315789       0.20526316       0.50000000 </v>
   <v>       0.35263158       0.22105263       0.50000000 </v>
   <v>       0.34210526       0.23684211       0.50000000 </v>
   <v>       0.33157895       0.25263158       0.50000000 </v>
   <v>       0.32105263       0.26842105       0.50000000 </v>
   <v>       0.31052632       0.28421053       0.50000000 </v>
   <v>       0.30000000       0.30000000       0.50000000 </v>
   <v>       0.30000000       0.30000000       0.50000000 </v>
   <v>       0.28421053       0.28421053       0.50000000 </v>
   <v>       0.26842105       0.26842105       0.50000000 </v>
   <v>       0.25263158       0.25263158       0.50000000 </v>
   <v>       0.23684211       0.23684211       0.50000000 </v>
   <v>       0.22105263       0.22105263       0.50000000 </v>
   <v>       0.20526316       0.20526316       0.50000000 </v>
   <v>       0.18947368       0.18947368       0.50000000 </v>
   <v>       0.17368421       0.17368421       0.50000000 </v>
   <v>       0.15789474       0.15789474       0.50000000 </v>
   <v>       0.14210526       0.14210526       0.50000000 </v>
   <v>       0.12631579       0.12631579       0.50000000 </v>
   <v>       0.11052632       0.11052632       0.50000000 </v>
   <v>       0.09473684       0.09473684       0.50000000 </v>
   <v>       0.07894737       0.07894737       0.50000000 </v>
   <v>       0.06315789       0.06315789       0.50000000 </v>
   <v>       0.04736842       0.04736842       0.50000000 </v>
   <v>       0.03157895       0.03157895       0.50000000 </v>
   <v>       0.01578947       0.01578947       0.50000000 </v>
   <v>       0.00000000       0.00000000       0.50000000 </v>
  </varray>
  <varray name="weights" >
   <v>       0.00714286 </v>
   <v>       0.00714286 </v>
   <v>       0.00714286 </v>
   <v>       0.00714286 </v>
   <v>       0.00714286 </v>
   <v>       0.00714286 </v>
   <v>       0.00714286 </v>
   <v>       0.00714286 </v>
   <v>       0.00714286 </v>
   <v>       0.00714286 </v>
   <v>       0.00714286 </v>
   <v>       0.00714286 </v>
   <v>       0.00714286 </v>
   <v>       0.00714286 </v>
   <v>       0.00714286 </v>
   <v>       0.00714286 </v>
   <v>       0.00714286 </v>
   <v>       0.00714286 </v>
   <v>       0.00714286 </v>
   <v>       0.00714286 </v>
   <v>       0.00714286 </v>
   <v>       0.00714286 </v>
   <v>       0.00714286 </v>
   <v>       0.00714286 </v>
   <v>       0.00714286 </v>
   <v>       0.00714286 </v>
   <v>       0.00714286 </v>
   <v>       0.00714286 </v>
   <v>       0.00714286 </v>
   <v>       0.00714286 </v>
   <v>       0.00714286 </v>
   <v>       0.00714286 </v>
   <v>       0.00714286 </v>
   <v>       0.00714286 </v>
   <v>       0.00714286 </v>
   <v>       0.00714286 </v>
   <v>       0.00714286 </v>
   <v>       0.00714286 </v>
   <v>       0.00714286 </v>
   <v>       0.00714286 </v>
   <v>       0.00714286 </v>
   <v>       0.00714286 </v>
   <v>       0.00714286 </v>
   <v>       0.00714286 </v>
   <v>       0.00714286 </v>
   <v>       0.00714286 </v>
   <v>       0.00714286 </v>
   <v>       0.00714286 </v>
   <v>       0.00714286 </v>
   <v>       0.00714286 </v>
   <v>       0.00714286 </v>
   <v>       0.00714286 </v>
   <v>       0.00714286 </v>
   <v>       0.00714286 </v>
   <v>       0.00714286 </v>
   <v>       0.00714286 </v>
   <v>       0.00714286 </v>
   <v>       0.00714286 </v>
   <v>       0.00714286 </v>
   <v>       0.00714286 </v>
   <v>       0.00714286 </v>
   <v>       0.00714286 </v>
   <v>       0.00714286 </v>
   <v>       0.00714286 </v>
   <v>       0.00714286 </v>
   <v>       0.00714286 </v>
   <v>       0.00714286 </v>
   <v>       0.00714286 </v>
   <v>       0.00714286 </v>
   <v>       0.00714286 </v>
   <v>       0.00714286 </v>
   <v>       0.00714286 </v>
   <v>       0.00714286 </v>
   <v>       0.00714286 </v>
   <v>       0.00714286 </v>
   <v>       0.00714286 </v>
   <v>       0.00714286 </v>
   <v>       0.00714286 </v>
   <v>       0.00714286 </v>
   <v>       0.00714286 </v>
   <v>       0.00714286 </v>
   <v>       0.00714286 </v>
   <v>       0.00714286 </v>
   <v>       0.00714286 </v>
   <v>       0.00714286 </v>
   <v>       0.00714286 </v>
   <v>       0.00714286 </v>
   <v>       0.00714286 </v>
   <v>       0.00714286 </v>
   <v>       0.00714286 </v>
   <v>       0.00714286 </v>
   <v>       0.00714286 </v>
   <v>       0.00714286 </v>
   <v>       0.00714286 </v>
   <v>       0.00714286 </v>
   <v>       0.00714286 </v>
   <v>       0.00714286 </v>
   <v>       0.00714286 </v>
   <v>       0.00714286 </v>
   <v>       0.00714286 </v>
   <v>       0.00714286 </v>
   <v>       0.00714286 </v>
   <v>       0.00714286 </v>
   <v>       0.00714286 </v>
   <v>       0.00714286 </v>
   <v>       0.00714286 </v>
   <v>       0.00714286 </v>
   <v>       0.00714286 </v>
   <v>       0.00714286 </v>
   <v>       0.00714286 </v>
   <v>       0.00714286 </v>
   <v>       0.00714286 </v>
   <v>       0.00714286 </v>
   <v>       0.00714286 </v>
   <v>       0.00714286 </v>
   <v>       0.00714286 </v>
   <v>       0.00714286 </v>
   <v>       0.00714286 </v>
   <v>       0.00714286 </v>
   <v>       0.00714286 </v>
   <v>       0.00714286 </v>
   <v>       0.00714286 </v>
   <v>       0.00714286 </v>
   <v>       0.00714286 </v>
   <v>       0.00714286 </v>
   <v>       0.00714286 </v>
   <v>       0.00714286 </v>
   <v>       0.00714286 </v>
   <v>       0.00714286 </v>
   <v>       0.00714286 </v>
   <v>       0.00714286 </v>
   <v>       0.00714286 </v>
   <v>       0.00714286 </v>
   <v>       0.00714286 </v>
   <v>       0.00714286 </v>
   <v>       0.00714286 </v>
   <v>       0.00714286 </v>
   <v>       0.00714286 </v>
   <v>       0.00714286 </v>
   <v>       0.00714286 </v>
  </varray>
 </kpoints>
 <parameters>
  <separator name="general" >
   <i type="string" name="SYSTEM">BiFeO3</i>
   <i type="logical" name="LCOMPAT"> F  </i>
  </separator>
  <separator name="electronic" >
   <i type="string" name="PREC">normal</i>
   <i name="ENMAX">    500.00000000</i>
   <i name="ENAUG">    627.11200000</i>
   <i name="EDIFF">      0.00010000</i>
   <i type="int" name="IALGO">    38</i>
   <i type="int" name="IWAVPR">    10</i>
   <i type="int" name="NBANDS">    20</i>
   <i name="NELECT">      8.00000000</i>
   <i type="int" name="TURBO">     0</i>
   <i type="int" name="IRESTART">     0</i>
   <i type="int" name="NREBOOT">     0</i>
   <i type="int" name="NMIN">     0</i>
   <i name="EREF">      0.00000000</i>
   <separator name="electronic smearing" >
    <i type="int" name="ISMEAR">     0</i>
    <i name="SIGMA">      0.05000000</i>
    <i name="KSPACING">      0.50000000</i>
    <i type="logical" name="KGAMMA"> T  </i>
   </separator>
   <separator name="electronic projectors" >
    <i type="logical" name="LREAL"> F  </i>
    <v name="ROPT">      0.00000000      0.00000000</v>
    <i type="int" name="LMAXPAW">  -100</i>
    <i type="int" name="LMAXMIX">     2</i>
    <i type="logical" name="NLSPLINE"> F  </i>
   </separator>
   <separator name="electronic startup" >
    <i type="int" name="ISTART">     1</i>
    <i type="int" name="ICHARG">    11</i>
    <i type="int" name="INIWAV">     1</i>
   </separator>
   <separator name="electronic spin" >
    <i type="int" name="ISPIN">     1</i>
    <i type="logical" name="LNONCOLLINEAR"> F  </i>
    <v name="MAGMOM">      1.00000000      1.00000000</v>
    <i name="NUPDOWN">     -1.00000000</i>
    <i type="logical" name="LSORBIT"> F  </i>
    <v name="SAXIS">      0.00000000      0.00000000      1.00000000</v>
    <i type="logical" name="LSPIRAL"> F  </i>
    <v name="QSPIRAL">      0.00000000      0.00000000      0.00000000</v>
    <i type="logical" name="LZEROZ"> F  </i>
   </separator>
   <separator name="electronic exchange-correlation" >
    <i type="logical" name="LASPH"> F  </i>
    <i type="logical" name="LMETAGGA"> F  </i>
   </separator>
   <separator name="electronic convergence" >
    <i type="int" name="NELM">    60</i>
    <i type="int" name="NELMDL">     0</i>
    <i type="int" name="NELMIN">     2</i>
    <i name="ENINI">    500.00000000</i>
    <separator name="electronic convergence detail" >
     <i type="logical" name="LDIAG"> T  </i>
     <i type="logical" name="LSUBROT"> F  </i>
     <i name="WEIMIN">      0.00000000</i>
     <i name="EBREAK">      0.00000125</i>
     <i name="DEPER">      0.30000000</i>
     <i type="int" name="NRMM">     4</i>
     <i name="TIME">      0.40000000</i>
    </separator>
   </separator>
   <separator name="electronic mixer" >
    <i name="AMIX">      0.40000000</i>
    <i name="BMIX">      1.00000000</i>
    <i name="AMIN">      0.10000000</i>
    <i name="AMIX_MAG">      1.60000000</i>
    <i name="BMIX_MAG">      1.00000000</i>
    <separator name="electronic mixer details" >
     <i type="int" name="IMIX">     4</i>
     <i type="logical" name="MIXFIRST"> F  </i>
     <i type="int" name="MAXMIX">   -45</i>
     <i name="WC">    100.00000000</i>
     <i type="int" name="INIMIX">     1</i>
     <i type="int" name="MIXPRE">     1</i>
     <i type="int" name="MREMOVE">     5</i>
    </separator>
   </separator>
   <separator name="electronic dipolcorrection" >
    <i type="logical" name="LDIPOL"> F  </i>
    <i type="logical" name="LMONO"> F  </i>
    <i type="int" name="IDIPOL">     0</i>
    <i name="EPSILON">      1.00000000</i>
    <v name="DIPOL">   -100.00000000   -100.00000000   -100.00000000</v>
    <i name="EFIELD">      0.00000000</i>
   </separator>
  </separator>
  <separator name="grids" >
   <i type="int" name="NGX">    14</i>
   <i type="int" name="NGY">    14</i>
   <i type="int" name="NGZ">    42</i>
   <i type="int" name="NGXF">    28</i>
   <i type="int" name="NGYF">    28</i>
   <i type="int" name="NGZF">    84</i>
   <i type="logical" name="ADDGRID"> T  </i>
  </separator>
  <separator name="ionic" >
   <i type="int" name="NSW">     0</i>
   <i type="int" name="IBRION">    -1</i>
   <i type="int" name="MDALGO">     0</i>
   <i type="int" name="ISIF">     2</i>
   <i name="PSTRESS">      0.00000000</i>
   <i name="EDIFFG">      0.00100000</i>
   <i type="int" name="NFREE">     0</i>
   <i name="POTIM">      0.50000000</i>
   <i name="SMASS">     -3.00000000</i>
   <i name="SCALEE">      1.00000000</i>
  </separator>
  <separator name="ionic md" >
   <i name="TEBEG">      0.00010000</i>
   <i name="TEEND">      0.00010000</i>
   <i type="int" name="NBLOCK">     1</i>
   <i type="int" name="KBLOCK">     1</i>
   <i type="int" name="NPACO">   256</i>
   <i name="APACO">     16.00000000</i>
  </separator>
  <separator name="symmetry" >
   <i type="int" name="ISYM">     2</i>
   <i name="SYMPREC">      0.00001000</i>
  </separator>
  <separator name="dos" >
   <i type="int" name="LORBIT">    11</i>
   <v name="RWIGS">     -1.00000000     -1.00000000</v>
   <i type="int" name="NEDOS">   301</i>
   <i name="EMIN">     10.00000000</i>
   <i name="EMAX">    -10.00000000</i>
   <i name="EFERMI">      0.00000000</i>
  </separator>
  <separator name="writing" >
   <i type="int" name="NWRITE">     2</i>
   <i type="logical" name="LWAVE"> T  </i>
   <i type="logical" name="LDOWNSAMPLE"> F  </i>
   <i type="logical" name="LCHARG"> T  </i>
   <i type="logical" name="LPARD"> F  </i>
   <i type="logical" name="LVTOT"> F  </i>
   <i type="logical" name="LVHAR"> F  </i>
   <i type="logical" name="LELF"> F  </i>
   <i type="logical" name="LOPTICS"> F  </i>
   <v name="STM">      0.00000000      0.00000000      0.00000000      0.00000000      0.00000000      0.00000000      0.00000000</v>
  </separator>
  <separator name="performance" >
   <i type="int" name="NPAR">    20</i>
   <i type="int" name="NSIM">     4</i>
   <i type="int" name="NBLK">    -1</i>
   <i type="logical" name="LPLANE"> T  </i>
   <i type="logical" name="LSCALAPACK"> T  </i>
   <i type="logical" name="LSCAAWARE"> F  </i>
   <i type="logical" name="LSCALU"> F  </i>
   <i type="logical" name="LASYNC"> F  </i>
   <i type="logical" name="LORBITALREAL"> F  </i>
  </separator>
  <separator name="miscellaneous" >
   <i type="int" name="IDIOT">     3</i>
   <i type="int" name="ISPECIAL">     0</i>
   <i type="logical" name="LMUSIC"> F  </i>
   <v name="POMASS">     10.81100000     14.00100000</v>
   <v name="DARWINR">      0.00000000      0.00000000</v>
   <v name="DARWINV">      1.00000000      1.00000000</v>
   <i type="logical" name="LCORR"> T  </i>
  </separator>
  <i type="logical" name="GGA_COMPAT"> T  </i>
  <i type="logical" name="LBERRY"> F  </i>
  <i type="int" name="ICORELEVEL">     0</i>
  <i type="logical" name="LDAU"> F  </i>
  <i type="int" name="I_CONSTRAINED_M">     0</i>
  <separator name="electronic exchange-correlation" >
   <i type="string" name="GGA">--</i>
   <i type="int" name="VOSKOWN">     0</i>
   <i type="logical" name="LHFCALC"> F  </i>
   <i type="string" name="PRECFOCK"></i>
   <i type="logical" name="LSYMGRAD"> F  </i>
   <i type="logical" name="LHFONE"> F  </i>
   <i type="logical" name="LRHFCALC"> F  </i>
   <i type="logical" name="LTHOMAS"> F  </i>
   <i type="logical" name="LMODELHF"> F  </i>
   <i name="ENCUT4O">     -1.00000000</i>
   <i type="int" name="EXXOEP">     0</i>
   <i type="int" name="FOURORBIT">     0</i>
   <i name="AEXX">      0.00000000</i>
   <i name="HFALPHA">      0.00000000</i>
   <i name="MCALPHA">      0.00000000</i>
   <i name="ALDAX">      1.00000000</i>
   <i name="AGGAX">      1.00000000</i>
   <i name="ALDAC">      1.00000000</i>
   <i name="AGGAC">      1.00000000</i>
   <i type="int" name="NKREDX">     1</i>
   <i type="int" name="NKREDY">     1</i>
   <i type="int" name="NKREDZ">     1</i>
   <i type="logical" name="SHIFTRED"> F  </i>
   <i type="logical" name="ODDONLY"> F  </i>
   <i type="logical" name="EVENONLY"> F  </i>
   <i type="int" name="LMAXFOCK">     0</i>
   <i type="int" name="NMAXFOCKAE">     0</i>
   <i type="logical" name="LFOCKAEDFT"> F  </i>
   <i name="HFSCREEN">      0.00000000</i>
   <i name="HFSCREENC">      0.00000000</i>
   <i type="int" name="NBANDSGWLOW">     0</i>
  </separator>
  <separator name="vdW DFT" >
   <i type="logical" name="LUSE_VDW"> F  </i>
   <i name="Zab_VDW">     -0.84910000</i>
   <i name="PARAM1">      0.12340000</i>
   <i name="PARAM2">      1.00000000</i>
   <i name="PARAM3">      0.00000000</i>
  </separator>
  <separator name="model GW" >
   <i type="int" name="MODEL_GW">     0</i>
   <i name="MODEL_EPS0">     12.34371736</i>
   <i name="MODEL_ALPHA">      1.00000000</i>
  </separator>
  <separator name="linear response parameters" >
   <i type="logical" name="LEPSILON"> F  </i>
   <i type="logical" name="LRPA"> F  </i>
   <i type="logical" name="LNABLA"> F  </i>
   <i type="logical" name="LVEL"> F  </i>
   <i type="int" name="KINTER">     0</i>
   <i name="CSHIFT">      0.10000000</i>
   <i name="OMEGAMAX">     -1.00000000</i>
   <i name="DEG_THRESHOLD">      0.00200000</i>
   <i name="RTIME">     -0.10000000</i>
   <i name="WPLASMAI">      0.00000000</i>
   <v name="DFIELD">      0.00000000      0.00000000      0.00000000</v>
   <v name="WPLASMA">      0.00000000      0.00000000      0.00000000      0.00000000      0.00000000      0.00000000      0.00000000      0.00000000      0.00000000</v>
  </separator>
  <separator name="orbital magnetization" >
   <i type="logical" name="NUCIND"> F  </i>
   <v name="MAGPOS">      0.00000000      0.00000000      0.00000000</v>
   <i type="logical" name="LNICSALL"> T  </i>
   <i type="logical" name="ORBITALMAG"> F  </i>
   <i type="logical" name="LMAGBLOCH"> F  </i>
   <i type="logical" name="LCHIMAG"> F  </i>
   <i type="logical" name="LGAUGE"> T  </i>
   <i type="int" name="MAGATOM">     0</i>
   <v name="MAGDIPOL">      0.00000000      0.00000000      0.00000000</v>
   <v name="AVECCONST">      0.00000000      0.00000000      0.00000000</v>
  </separator>
  <separator name="response functions" >
   <i type="logical" name="LADDER"> F  </i>
   <i type="logical" name="LRPAFORCE"> F  </i>
   <i type="logical" name="LFXC"> F  </i>
   <i type="logical" name="LHARTREE"> T  </i>
   <i type="int" name="IBSE">     0</i>
   <v type="int" name="KPOINT">    -1     0     0     0</v>
   <i type="logical" name="LTCTE"> F  </i>
   <i type="logical" name="LTETE"> F  </i>
   <i type="logical" name="LTRIPLET"> F  </i>
   <i type="logical" name="LFXCEPS"> F  </i>
   <i type="logical" name="LFXHEG"> F  </i>
   <i type="int" name="NATURALO">     2</i>
   <i type="logical" name="L2ORDER"> F  </i>
   <i type="logical" name="LMP2LT"> F  </i>
   <i type="logical" name="LUSEW"> F  </i>
   <i name="ENCUTGW">     -2.00000000</i>
   <i name="ENCUTGWSOFT">     -2.00000000</i>
   <i name="ENCUTLF">     -1.00000000</i>
   <i type="int" name="LMAXMP2">    -1</i>
   <i name="SCISSOR">      0.00000000</i>
   <i type="int" name="NOMEGA">     0</i>
   <i type="int" name="NOMEGAR">     0</i>
   <i type="int" name="NBANDSGW">    -1</i>
   <i type="int" name="NBANDSO">    -1</i>
   <i type="int" name="NBANDSV">    -1</i>
   <i type="int" name="NELM">     1</i>
   <i type="int" name="NELMHF">     1</i>
   <i type="int" name="DIM">     3</i>
   <i type="int" name="ANTIRES">     0</i>
   <i name="OMEGAMAX">    -30.00000000</i>
   <i name="OMEGAMIN">    -30.00000000</i>
   <i name="OMEGATL">   -200.00000000</i>
   <i type="int" name="OMEGAGRID">   140</i>
   <i name="CSHIFT">     -0.10000000</i>
   <i type="logical" name="SELFENERGY"> F  </i>
   <i type="logical" name="LSPECTRAL"> F  </i>
   <i type="logical" name="LSPECTRALGW"> F  </i>
   <i type="logical" name="LSINGLES"> F  </i>
   <i type="logical" name="LFERMIGW"> F  </i>
   <i type="logical" name="ODDONLYGW"> F  </i>
   <i type="logical" name="EVENONLYGW"> F  </i>
   <i type="int" name="NKREDLFX">     1</i>
   <i type="int" name="NKREDLFY">     1</i>
   <i type="int" name="NKREDLFZ">     1</i>
   <i type="int" name="MAXMEM">  2800</i>
   <i type="int" name="TELESCOPE">     0</i>
   <i type="int" name="TAUPAR">     1</i>
   <i type="int" name="OMEGAPAR">    -1</i>
   <i name="LAMBDA">      1.00000000</i>
  </separator>
  <separator name="External order field" >
   <i name="OFIELD_KAPPA">      0.00000000</i>
   <v name="OFIELD_K">      0.00000000      0.00000000      0.00000000</v>
   <i name="OFIELD_Q6_NEAR">      0.00000000</i>
   <i name="OFIELD_Q6_FAR">      0.00000000</i>
   <i name="OFIELD_A">      0.00000000</i>
  </separator>
 </parameters>
 <atominfo>
  <atoms>       2 </atoms>
  <types>       2 </types>
  <array name="atoms" >
   <dimension dim="1">ion</dimension>
   <field type="string">element</field>
   <field type="int">atomtype</field>
   <set>
    <rc><c>B </c><c>   1</c></rc>
    <rc><c>N </c><c>   2</c></rc>
   </set>
  </array>
  <array name="atomtypes" >
   <dimension dim="1">type</dimension>
   <field type="int">atomspertype</field>
   <field type="string">element</field>
   <field>mass</field>
   <field>valence</field>
   <field type="string">pseudopotential</field>
   <set>
    <rc><c>   1</c><c>B </c><c>     10.81100000</c><c>      3.00000000</c><c>  PAW_PBE B 06Sep2000                   </c></rc>
    <rc><c>   1</c><c>N </c><c>     14.00100000</c><c>      5.00000000</c><c>  PAW_PBE N 08Apr2002                   </c></rc>
   </set>
  </array>
 </atominfo>
 <structure name="initialpos" >
  <crystal>
   <varray name="basis" >
    <v>       1.25623732      -2.17586686       0.00000000 </v>
    <v>       1.25623732       2.17586686       0.00000000 </v>
    <v>       0.00000000       0.00000000       7.52645917 </v>
   </varray>
   <i name="volume">     41.14572454 </i>
   <varray name="rec_basis" >
    <v>       0.39801397      -0.22979347       0.00000000 </v>
    <v>       0.39801397       0.22979347       0.00000000 </v>
    <v>       0.00000000       0.00000000       0.13286460 </v>
   </varray>
  </crystal>
  <varray name="positions" >
   <v>       0.00000000       0.00000000       0.00000000 </v>
   <v>       0.33333333       0.66666667       0.00000000 </v>
  </varray>
 </structure>
 <calculation>
  <scstep>
   <time name="dav">    0.70    0.70</time>
   <time name="total">    0.70    0.71</time>
   <energy>
    <i name="alphaZ">      8.64846017 </i>
    <i name="ewald">    121.23345169 </i>
    <i name="hartreedc">   -435.83891711 </i>
    <i name="XCdc">     28.32364994 </i>
    <i name="pawpsdc">    925.43029887 </i>
    <i name="pawaedc">   -926.16060211 </i>
    <i name="eentropy">     -0.00000000 </i>
    <i name="bandstr">    -73.32364671 </i>
    <i name="atom">    335.70396624 </i>
    <i name="e_fr_energy">    -15.98333901 </i>
    <i name="e_wo_entrp">    -15.98333901 </i>
    <i name="e_0_energy">    -15.98333901 </i>
   </energy>
  </scstep>
  <scstep>
   <time name="dav">    0.99    0.99</time>
   <time name="total">    0.99    0.99</time>
   <energy>
    <i name="e_fr_energy">    -16.10201666 </i>
    <i name="e_wo_entrp">    -16.10201666 </i>
    <i name="e_0_energy">    -16.10201666 </i>
   </energy>
  </scstep>
  <scstep>
   <time name="dav">    1.03    1.04</time>
   <time name="total">    1.04    1.04</time>
   <energy>
    <i name="alphaZ">      8.64846017 </i>
    <i name="ewald">    121.23345169 </i>
    <i name="hartreedc">   -435.83891711 </i>
    <i name="XCdc">     28.32364994 </i>
    <i name="pawpsdc">    925.43029887 </i>
    <i name="pawaedc">   -926.16060211 </i>
    <i name="eentropy">     -0.00000000 </i>
    <i name="bandstr">    -73.44236612 </i>
    <i name="atom">    335.70396624 </i>
    <i name="e_fr_energy">    -16.10205842 </i>
    <i name="e_wo_entrp">    -16.10205842 </i>
    <i name="e_0_energy">    -16.10205842 </i>
   </energy>
  </scstep>
  <structure>
   <crystal>
    <varray name="basis" >
     <v>       1.25623732      -2.17586686       0.00000000 </v>
     <v>       1.25623732       2.17586686       0.00000000 </v>
     <v>       0.00000000       0.00000000       7.52645917 </v>
    </varray>
    <i name="volume">     41.14572454 </i>
    <varray name="rec_basis" >
     <v>       0.39801397      -0.22979347       0.00000000 </v>
     <v>       0.39801397       0.22979347       0.00000000 </v>
     <v>       0.00000000       0.00000000       0.13286460 </v>
    </varray>
   </crystal>
   <varray name="positions" >
    <v>       0.00000000       0.00000000       0.00000000 </v>
    <v>       0.33333333       0.66666667       0.00000000 </v>
   </varray>
  </structure>
  <varray name="forces" >
   <v>      -0.00000000       0.00000000       0.00000000 </v>
   <v>       0.00000000      -0.00000000       0.00000000 </v>
  </varray>
  <varray name="stress" >
   <v>      78.24233968      -0.00000000       0.00000000 </v>
   <v>      -0.00000000      78.24233968       0.00000000 </v>
   <v>       0.00000000       0.00000000      74.06653204 </v>
  </varray>
  <energy>
   <i name="e_fr_energy">    -16.10205842 </i>
   <i name="e_wo_entrp">    -16.10205842 </i>
   <i name="e_0_energy">     -0.00000000 </i>
  </energy>
  <time name="totalsc">    3.28    3.33</time>
  <eigenvalues>
   <array>
    <dimension dim="1">band</dimension>
    <dimension dim="2">kpoint</dimension>
    <dimension dim="3">spin</dimension>
    <field>eigene</field>
    <field>occ</field>
    <set>
     <set comment="spin 1">
      <set comment="kpoint 1">
       <r>  -19.8673    1.0000 </r>
       <r>   -7.4564    1.0000 </r>
       <r>   -3.6050    1.0000 </r>
       <r>   -3.6049    1.0000 </r>
       <r>    2.0573    0.0000 </r>
       <r>    5.2089    0.0000 </r>
       <r>    6.8167    0.0000 </r>
       <r>    9.2572    0.0000 </r>
       <r>    9.2572    0.0000 </r>
       <r>   10.7658    0.0000 </r>
       <r>   11.8364    0.0000 </r>
       <r>   17.2516    0.0000 </r>
       <r>   20.4396    0.0000 </r>
       <r>   23.2649    0.0000 </r>
       <r>   27.3841    0.0000 </r>
       <r>   27.3841    0.0000 </r>
       <r>   29.1674    0.0000 </r>
       <r>   30.4354    0.0000 </r>
       <r>   30.4355    0.0000 </r>
       <r>   33.0657    0.0000 </r>
      </set>
      <set comment="kpoint 2">
       <r>  -19.8541    1.0000 </r>
       <r>   -7.4386    1.0000 </r>
       <r>   -3.6632    1.0000 </r>
       <r>   -3.6319    1.0000 </r>
       <r>    2.0803    0.0000 </r>
       <r>    5.2256    0.0000 </r>
       <r>    6.8415    0.0000 </r>
       <r>    9.2500    0.0000 </r>
       <r>    9.3172    0.0000 </r>
       <r>   10.7294    0.0000 </r>
       <r>   11.8775    0.0000 </r>
       <r>   17.2528    0.0000 </r>
       <r>   20.4687    0.0000 </r>
       <r>   23.2940    0.0000 </r>
       <r>   27.1820    0.0000 </r>
       <r>   27.1968    0.0000 </r>
       <r>   28.8132    0.0000 </r>
       <r>   30.6622    0.0000 </r>
       <r>   30.9871    0.0000 </r>
       <r>   31.9924    0.0000 </r>
      </set>
      <set comment="kpoint 3">
       <r>  -19.8143    1.0000 </r>
       <r>   -7.3852    1.0000 </r>
       <r>   -3.8343    1.0000 </r>
       <r>   -3.7105    1.0000 </r>
       <r>    2.1491    0.0000 </r>
       <r>    5.2754    0.0000 </r>
       <r>    6.9140    0.0000 </r>
       <r>    9.2299    0.0000 </r>
       <r>    9.4951    0.0000 </r>
       <r>   10.6216    0.0000 </r>
       <r>   11.9987    0.0000 </r>
       <r>   17.2569    0.0000 </r>
       <r>   20.5541    0.0000 </r>
       <r>   23.3796    0.0000 </r>
       <r>   26.5280    0.0000 </r>
       <r>   26.7480    0.0000 </r>
       <r>   28.5555    0.0000 </r>
       <r>   30.5503    0.0000 </r>
       <r>   31.2283    0.0000 </r>
       <r>   31.8354    0.0000 </r>
      </set>
      <set comment="kpoint 4">
       <r>  -19.7483    1.0000 </r>
       <r>   -7.2966    1.0000 </r>
       <r>   -4.1080    1.0000 </r>
       <r>   -3.8359    1.0000 </r>
       <r>    2.2624    0.0000 </r>
       <r>    5.3566    0.0000 </r>
       <r>    7.0291    0.0000 </r>
       <r>    9.2015    0.0000 </r>
       <r>    9.7849    0.0000 </r>
       <r>   10.4446    0.0000 </r>
       <r>   12.1934    0.0000 </r>
       <r>   17.2657    0.0000 </r>
       <r>   20.6899    0.0000 </r>
       <r>   23.5150    0.0000 </r>
       <r>   25.6152    0.0000 </r>
       <r>   26.1940    0.0000 </r>
       <r>   28.5558    0.0000 </r>
       <r>   29.1150    0.0000 </r>
       <r>   31.1393    0.0000 </r>
       <r>   31.8816    0.0000 </r>
      </set>
      <set comment="kpoint 5">
       <r>  -19.6563    1.0000 </r>
       <r>   -7.1730    1.0000 </r>
       <r>   -4.4698    1.0000 </r>
       <r>   -4.0000    1.0000 </r>
       <r>    2.4190    0.0000 </r>
       <r>    5.4664    0.0000 </r>
       <r>    7.1788    0.0000 </r>
       <r>    9.1723    0.0000 </r>
       <r>   10.1780    0.0000 </r>
       <r>   10.2038    0.0000 </r>
       <r>   12.4525    0.0000 </r>
       <r>   17.2805    0.0000 </r>
       <r>   20.8673    0.0000 </r>
       <r>   23.6821    0.0000 </r>
       <r>   24.6558    0.0000 </r>
       <r>   25.6146    0.0000 </r>
       <r>   27.7336    0.0000 </r>
       <r>   28.6303    0.0000 </r>
       <r>   30.4784    0.0000 </r>
       <r>   31.2001    0.0000 </r>
      </set>
      <set comment="kpoint 6">
       <r>  -19.5388    1.0000 </r>
       <r>   -7.0151    1.0000 </r>
       <r>   -4.9037    1.0000 </r>
       <r>   -4.1939    1.0000 </r>
       <r>    2.6176    0.0000 </r>
       <r>    5.5993    0.0000 </r>
       <r>    7.3528    0.0000 </r>
       <r>    9.1517    0.0000 </r>
       <r>    9.9076    0.0000 </r>
       <r>   10.6641    0.0000 </r>
       <r>   12.7647    0.0000 </r>
       <r>   17.3002    0.0000 </r>
       <r>   21.0749    0.0000 </r>
       <r>   23.7320    0.0000 </r>
       <r>   23.8273    0.0000 </r>
       <r>   25.0437    0.0000 </r>
       <r>   26.4626    0.0000 </r>
       <r>   28.6306    0.0000 </r>
       <r>   29.8608    0.0000 </r>
       <r>   30.5124    0.0000 </r>
      </set>
      <set comment="kpoint 7">
       <r>  -19.3968    1.0000 </r>
       <r>   -6.8237    1.0000 </r>
       <r>   -5.3936    1.0000 </r>
       <r>   -4.4087    1.0000 </r>
       <r>    2.8572    0.0000 </r>
       <r>    5.7456    0.0000 </r>
       <r>    7.5367    0.0000 </r>
       <r>    9.1542    0.0000 </r>
       <r>    9.5711    0.0000 </r>
       <r>   11.2310    0.0000 </r>
       <r>   13.1175    0.0000 </r>
       <r>   17.3196    0.0000 </r>
       <r>   21.2968    0.0000 </r>
       <r>   22.8782    0.0000 </r>
       <r>   23.7565    0.0000 </r>
       <r>   24.4965    0.0000 </r>
       <r>   25.4891    0.0000 </r>
       <r>   28.3523    0.0000 </r>
       <r>   29.2768    0.0000 </r>
       <r>   29.6853    0.0000 </r>
      </set>
      <set comment="kpoint 8">
       <r>  -19.2311    1.0000 </r>
       <r>   -6.5998    1.0000 </r>
       <r>   -5.9242    1.0000 </r>
       <r>   -4.6354    1.0000 </r>
       <r>    3.1374    0.0000 </r>
       <r>    5.8872    0.0000 </r>
       <r>    7.7113    0.0000 </r>
       <r>    9.1997    0.0000 </r>
       <r>    9.2188    0.0000 </r>
       <r>   11.8676    0.0000 </r>
       <r>   13.4974    0.0000 </r>
       <r>   17.3272    0.0000 </r>
       <r>   21.4954    0.0000 </r>
       <r>   22.1154    0.0000 </r>
       <r>   23.1273    0.0000 </r>
       <r>   23.9808    0.0000 </r>
       <r>   25.1546    0.0000 </r>
       <r>   27.6760    0.0000 </r>
       <r>   28.7381    0.0000 </r>
       <r>   28.7461    0.0000 </r>
      </set>
      <set comment="kpoint 9">
       <r>  -19.0430    1.0000 </r>
       <r>   -6.4819    1.0000 </r>
       <r>   -6.3450    1.0000 </r>
       <r>   -4.8661    1.0000 </r>
       <r>    3.4574    0.0000 </r>
       <r>    5.9909    0.0000 </r>
       <r>    7.8544    0.0000 </r>
       <r>    8.8924    0.0000 </r>
       <r>    9.3123    0.0000 </r>
       <r>   12.5620    0.0000 </r>
       <r>   13.8890    0.0000 </r>
       <r>   17.3046    0.0000 </r>
       <r>   21.4438    0.0000 </r>
       <r>   21.4603    0.0000 </r>
       <r>   22.3841    0.0000 </r>
       <r>   23.5009    0.0000 </r>
       <r>   25.1702    0.0000 </r>
       <r>   26.7818    0.0000 </r>
       <r>   27.8234    0.0000 </r>
       <r>   28.2419    0.0000 </r>
      </set>
      <set comment="kpoint 10">
       <r>  -18.8342    1.0000 </r>
       <r>   -7.0545    1.0000 </r>
       <r>   -6.0611    1.0000 </r>
       <r>   -5.0942    1.0000 </r>
       <r>    3.8165    0.0000 </r>
       <r>    6.0017    0.0000 </r>
       <r>    7.9501    0.0000 </r>
       <r>    8.6561    0.0000 </r>
       <r>    9.5091    0.0000 </r>
       <r>   13.3025    0.0000 </r>
       <r>   14.2717    0.0000 </r>
       <r>   17.2274    0.0000 </r>
       <r>   20.6484    0.0000 </r>
       <r>   20.9251    0.0000 </r>
       <r>   22.3220    0.0000 </r>
       <r>   23.0593    0.0000 </r>
       <r>   25.0942    0.0000 </r>
       <r>   25.8582    0.0000 </r>
       <r>   27.1101    0.0000 </r>
       <r>   27.7883    0.0000 </r>
      </set>
      <set comment="kpoint 11">
       <r>  -18.6072    1.0000 </r>
       <r>   -7.6310    1.0000 </r>
       <r>   -5.7507    1.0000 </r>
       <r>   -5.3138    1.0000 </r>
       <r>    4.2136    0.0000 </r>
       <r>    5.8595    0.0000 </r>
       <r>    8.0001    0.0000 </r>
       <r>    8.5795    0.0000 </r>
       <r>    9.7907    0.0000 </r>
       <r>   14.0766    0.0000 </r>
       <r>   14.6153    0.0000 </r>
       <r>   17.0721    0.0000 </r>
       <r>   19.6333    0.0000 </r>
       <r>   20.5094    0.0000 </r>
       <r>   22.4782    0.0000 </r>
       <r>   22.6574    0.0000 </r>
       <r>   24.7246    0.0000 </r>
       <r>   24.9995    0.0000 </r>
       <r>   26.7643    0.0000 </r>
       <r>   27.3779    0.0000 </r>
      </set>
      <set comment="kpoint 12">
       <r>  -18.3651    1.0000 </r>
       <r>   -8.2012    1.0000 </r>
       <r>   -5.5205    1.0000 </r>
       <r>   -5.4174    1.0000 </r>
       <r>    4.6470    0.0000 </r>
       <r>    5.5513    0.0000 </r>
       <r>    8.0192    0.0000 </r>
       <r>    8.6862    0.0000 </r>
       <r>   10.1445    0.0000 </r>
       <r>   14.8674    0.0000 </r>
       <r>   14.8715    0.0000 </r>
       <r>   16.8282    0.0000 </r>
       <r>   18.6764    0.0000 </r>
       <r>   20.1873    0.0000 </r>
       <r>   22.2963    0.0000 </r>
       <r>   22.5283    0.0000 </r>
       <r>   24.2575    0.0000 </r>
       <r>   24.2670    0.0000 </r>
       <r>   26.6657    0.0000 </r>
       <r>   27.0109    0.0000 </r>
      </set>
      <set comment="kpoint 13">
       <r>  -18.1119    1.0000 </r>
       <r>   -8.7551    1.0000 </r>
       <r>   -5.7102    1.0000 </r>
       <r>   -5.0659    1.0000 </r>
       <r>    5.1132    0.0000 </r>
       <r>    5.1225    0.0000 </r>
       <r>    8.0248    0.0000 </r>
       <r>    8.9420    0.0000 </r>
       <r>   10.5555    0.0000 </r>
       <r>   14.9305    0.0000 </r>
       <r>   15.6708    0.0000 </r>
       <r>   16.5023    0.0000 </r>
       <r>   17.8877    0.0000 </r>
       <r>   19.9053    0.0000 </r>
       <r>   21.9767    0.0000 </r>
       <r>   22.2664    0.0000 </r>
       <r>   23.7153    0.0000 </r>
       <r>   24.0693    0.0000 </r>
       <r>   26.6175    0.0000 </r>
       <r>   26.6876    0.0000 </r>
      </set>
      <set comment="kpoint 14">
       <r>  -17.8535    1.0000 </r>
       <r>   -9.2823    1.0000 </r>
       <r>   -5.8799    1.0000 </r>
       <r>   -4.7029    1.0000 </r>
       <r>    4.6306    0.0000 </r>
       <r>    5.6058    0.0000 </r>
       <r>    8.0336    0.0000 </r>
       <r>    9.3009    0.0000 </r>
       <r>   11.0109    0.0000 </r>
       <r>   14.6822    0.0000 </r>
       <r>   16.1103    0.0000 </r>
       <r>   16.4570    0.0000 </r>
       <r>   17.3674    0.0000 </r>
       <r>   19.6092    0.0000 </r>
       <r>   21.6990    0.0000 </r>
       <r>   21.7598    0.0000 </r>
       <r>   23.3835    0.0000 </r>
       <r>   24.1922    0.0000 </r>
       <r>   26.4079    0.0000 </r>
       <r>   26.5501    0.0000 </r>
      </set>
      <set comment="kpoint 15">
       <r>  -17.5975    1.0000 </r>
       <r>   -9.7713    1.0000 </r>
       <r>   -6.0272    1.0000 </r>
       <r>   -4.3379    1.0000 </r>
       <r>    4.1212    0.0000 </r>
       <r>    6.1108    0.0000 </r>
       <r>    8.0658    0.0000 </r>
       <r>    9.7293    0.0000 </r>
       <r>   11.4958    0.0000 </r>
       <r>   14.1237    0.0000 </r>
       <r>   15.6668    0.0000 </r>
       <r>   17.0754    0.0000 </r>
       <r>   17.2079    0.0000 </r>
       <r>   19.2820    0.0000 </r>
       <r>   21.2513    0.0000 </r>
       <r>   21.4636    0.0000 </r>
       <r>   23.2708    0.0000 </r>
       <r>   24.4397    0.0000 </r>
       <r>   26.1722    0.0000 </r>
       <r>   26.4627    0.0000 </r>
      </set>
      <set comment="kpoint 16">
       <r>  -17.3544    1.0000 </r>
       <r>  -10.2087    1.0000 </r>
       <r>   -6.1500    1.0000 </r>
       <r>   -3.9847    1.0000 </r>
       <r>    3.6298    0.0000 </r>
       <r>    6.5960    0.0000 </r>
       <r>    8.1562    0.0000 </r>
       <r>   10.2047    0.0000 </r>
       <r>   11.9723    0.0000 </r>
       <r>   13.4281    0.0000 </r>
       <r>   15.1830    0.0000 </r>
       <r>   16.8219    0.0000 </r>
       <r>   17.8970    0.0000 </r>
       <r>   18.9503    0.0000 </r>
       <r>   20.8760    0.0000 </r>
       <r>   21.2708    0.0000 </r>
       <r>   23.3324    0.0000 </r>
       <r>   24.7099    0.0000 </r>
       <r>   25.9805    0.0000 </r>
       <r>   26.3710    0.0000 </r>
      </set>
      <set comment="kpoint 17">
       <r>  -17.1377    1.0000 </r>
       <r>  -10.5788    1.0000 </r>
       <r>   -6.2470    1.0000 </r>
       <r>   -3.6625    1.0000 </r>
       <r>    3.1895    0.0000 </r>
       <r>    6.9950    0.0000 </r>
       <r>    8.3716    0.0000 </r>
       <r>   10.7069    0.0000 </r>
       <r>   12.1506    0.0000 </r>
       <r>   12.9934    0.0000 </r>
       <r>   14.6728    0.0000 </r>
       <r>   16.4757    0.0000 </r>
       <r>   18.4910    0.0000 </r>
       <r>   18.6555    0.0000 </r>
       <r>   20.6718    0.0000 </r>
       <r>   21.1206    0.0000 </r>
       <r>   23.5037    0.0000 </r>
       <r>   24.9516    0.0000 </r>
       <r>   25.8321    0.0000 </r>
       <r>   26.2874    0.0000 </r>
      </set>
      <set comment="kpoint 18">
       <r>  -16.9637    1.0000 </r>
       <r>  -10.8635    1.0000 </r>
       <r>   -6.3171    1.0000 </r>
       <r>   -3.3970    1.0000 </r>
       <r>    2.8347    0.0000 </r>
       <r>    7.2406    0.0000 </r>
       <r>    8.7764    0.0000 </r>
       <r>   11.2080    0.0000 </r>
       <r>   11.5614    0.0000 </r>
       <r>   13.3295    0.0000 </r>
       <r>   14.1628    0.0000 </r>
       <r>   16.0292    0.0000 </r>
       <r>   18.4293    0.0000 </r>
       <r>   18.9540    0.0000 </r>
       <r>   20.6015    0.0000 </r>
       <r>   21.0133    0.0000 </r>
       <r>   23.7157    0.0000 </r>
       <r>   25.1337    0.0000 </r>
       <r>   25.7272    0.0000 </r>
       <r>   26.2212    0.0000 </r>
      </set>
      <set comment="kpoint 19">
       <r>  -16.8498    1.0000 </r>
       <r>  -11.0442    1.0000 </r>
       <r>   -6.3594    1.0000 </r>
       <r>   -3.2191    1.0000 </r>
       <r>    2.6012    0.0000 </r>
       <r>    7.3508    0.0000 </r>
       <r>    9.3407    0.0000 </r>
       <r>   10.8201    0.0000 </r>
       <r>   11.6436    0.0000 </r>
       <r>   13.7196    0.0000 </r>
       <r>   13.8047    0.0000 </r>
       <r>   15.5641    0.0000 </r>
       <r>   18.2889    0.0000 </r>
       <r>   19.2499    0.0000 </r>
       <r>   20.5967    0.0000 </r>
       <r>   20.9489    0.0000 </r>
       <r>   23.8942    0.0000 </r>
       <r>   25.2422    0.0000 </r>
       <r>   25.6651    0.0000 </r>
       <r>   26.1781    0.0000 </r>
      </set>
      <set comment="kpoint 20">
       <r>  -16.8100    1.0000 </r>
       <r>  -11.1063    1.0000 </r>
       <r>   -6.3735    1.0000 </r>
       <r>   -3.1559    1.0000 </r>
       <r>    2.5193    0.0000 </r>
       <r>    7.3806    0.0000 </r>
       <r>    9.8457    0.0000 </r>
       <r>   10.2573    0.0000 </r>
       <r>   11.8439    0.0000 </r>
       <r>   13.5164    0.0000 </r>
       <r>   14.0591    0.0000 </r>
       <r>   15.3142    0.0000 </r>
       <r>   18.2415    0.0000 </r>
       <r>   19.3523    0.0000 </r>
       <r>   20.6015    0.0000 </r>
       <r>   20.9274    0.0000 </r>
       <r>   23.9654    0.0000 </r>
       <r>   25.2775    0.0000 </r>
       <r>   25.6472    0.0000 </r>
       <r>   26.1797    0.0000 </r>
      </set>
      <set comment="kpoint 21">
       <r>  -16.8100    1.0000 </r>
       <r>  -11.1063    1.0000 </r>
       <r>   -6.3735    1.0000 </r>
       <r>   -3.1559    1.0000 </r>
       <r>    2.5193    0.0000 </r>
       <r>    7.3806    0.0000 </r>
       <r>    9.8457    0.0000 </r>
       <r>   10.2573    0.0000 </r>
       <r>   11.8439    0.0000 </r>
       <r>   13.5164    0.0000 </r>
       <r>   14.0591    0.0000 </r>
       <r>   15.3142    0.0000 </r>
       <r>   18.2415    0.0000 </r>
       <r>   19.3523    0.0000 </r>
       <r>   20.6015    0.0000 </r>
       <r>   20.9274    0.0000 </r>
       <r>   23.9665    0.0000 </r>
       <r>   25.2788    0.0000 </r>
       <r>   25.6446    0.0000 </r>
       <r>   26.1672    0.0000 </r>
      </set>
      <set comment="kpoint 22">
       <r>  -16.8080    1.0000 </r>
       <r>  -11.1028    1.0000 </r>
       <r>   -6.3882    1.0000 </r>
       <r>   -3.1531    1.0000 </r>
       <r>    2.5209    0.0000 </r>
       <r>    7.4007    0.0000 </r>
       <r>    9.8391    0.0000 </r>
       <r>   10.2768    0.0000 </r>
       <r>   11.8379    0.0000 </r>
       <r>   13.5206    0.0000 </r>
       <r>   14.0580    0.0000 </r>
       <r>   15.3220    0.0000 </r>
       <r>   18.1838    0.0000 </r>
       <r>   19.3318    0.0000 </r>
       <r>   20.6123    0.0000 </r>
       <r>   20.9812    0.0000 </r>
       <r>   23.9816    0.0000 </r>
       <r>   25.0195    0.0000 </r>
       <r>   25.4502    0.0000 </r>
       <r>   26.6093    0.0000 </r>
      </set>
      <set comment="kpoint 23">
       <r>  -16.8021    1.0000 </r>
       <r>  -11.0922    1.0000 </r>
       <r>   -6.4318    1.0000 </r>
       <r>   -3.1444    1.0000 </r>
       <r>    2.5258    0.0000 </r>
       <r>    7.4604    0.0000 </r>
       <r>    9.8238    0.0000 </r>
       <r>   10.3313    0.0000 </r>
       <r>   11.8201    0.0000 </r>
       <r>   13.5329    0.0000 </r>
       <r>   14.0550    0.0000 </r>
       <r>   15.3452    0.0000 </r>
       <r>   18.0281    0.0000 </r>
       <r>   19.2731    0.0000 </r>
       <r>   20.6418    0.0000 </r>
       <r>   21.1236    0.0000 </r>
       <r>   24.0307    0.0000 </r>
       <r>   24.4117    0.0000 </r>
       <r>   25.3906    0.0000 </r>
       <r>   26.9583    0.0000 </r>
      </set>
      <set comment="kpoint 24">
       <r>  -16.7923    1.0000 </r>
       <r>  -11.0746    1.0000 </r>
       <r>   -6.5032    1.0000 </r>
       <r>   -3.1302    1.0000 </r>
       <r>    2.5338    0.0000 </r>
       <r>    7.5579    0.0000 </r>
       <r>    9.8082    0.0000 </r>
       <r>   10.4127    0.0000 </r>
       <r>   11.7900    0.0000 </r>
       <r>   13.5526    0.0000 </r>
       <r>   14.0510    0.0000 </r>
       <r>   15.3826    0.0000 </r>
       <r>   17.8108    0.0000 </r>
       <r>   19.1821    0.0000 </r>
       <r>   20.6834    0.0000 </r>
       <r>   21.3128    0.0000 </r>
       <r>   23.7630    0.0000 </r>
       <r>   24.1134    0.0000 </r>
       <r>   25.3481    0.0000 </r>
       <r>   26.8665    0.0000 </r>
      </set>
      <set comment="kpoint 25">
       <r>  -16.7787    1.0000 </r>
       <r>  -11.0500    1.0000 </r>
       <r>   -6.6008    1.0000 </r>
       <r>   -3.1103    1.0000 </r>
       <r>    2.5444    0.0000 </r>
       <r>    7.6905    0.0000 </r>
       <r>    9.7990    0.0000 </r>
       <r>   10.5149    0.0000 </r>
       <r>   11.7472    0.0000 </r>
       <r>   13.5783    0.0000 </r>
       <r>   14.0468    0.0000 </r>
       <r>   15.4327    0.0000 </r>
       <r>   17.5671    0.0000 </r>
       <r>   19.0654    0.0000 </r>
       <r>   20.7281    0.0000 </r>
       <r>   21.5071    0.0000 </r>
       <r>   23.1177    0.0000 </r>
       <r>   24.2284    0.0000 </r>
       <r>   25.2981    0.0000 </r>
       <r>   26.7227    0.0000 </r>
      </set>
      <set comment="kpoint 26">
       <r>  -16.7615    1.0000 </r>
       <r>  -11.0185    1.0000 </r>
       <r>   -6.7222    1.0000 </r>
       <r>   -3.0851    1.0000 </r>
       <r>    2.5573    0.0000 </r>
       <r>    7.8542    0.0000 </r>
       <r>    9.8012    0.0000 </r>
       <r>   10.6340    0.0000 </r>
       <r>   11.6911    0.0000 </r>
       <r>   13.6085    0.0000 </r>
       <r>   14.0433    0.0000 </r>
       <r>   15.4932    0.0000 </r>
       <r>   17.3227    0.0000 </r>
       <r>   18.9278    0.0000 </r>
       <r>   20.7680    0.0000 </r>
       <r>   21.6738    0.0000 </r>
       <r>   22.4861    0.0000 </r>
       <r>   24.3670    0.0000 </r>
       <r>   25.2390    0.0000 </r>
       <r>   26.5220    0.0000 </r>
      </set>
      <set comment="kpoint 27">
       <r>  -16.7407    1.0000 </r>
       <r>  -10.9803    1.0000 </r>
       <r>   -6.8648    1.0000 </r>
       <r>   -3.0547    1.0000 </r>
       <r>    2.5718    0.0000 </r>
       <r>    8.0438    0.0000 </r>
       <r>    9.8189    0.0000 </r>
       <r>   10.7679    0.0000 </r>
       <r>   11.6212    0.0000 </r>
       <r>   13.6417    0.0000 </r>
       <r>   14.0421    0.0000 </r>
       <r>   15.5617    0.0000 </r>
       <r>   17.0958    0.0000 </r>
       <r>   18.7731    0.0000 </r>
       <r>   20.7956    0.0000 </r>
       <r>   21.7905    0.0000 </r>
       <r>   21.8757    0.0000 </r>
       <r>   24.5069    0.0000 </r>
       <r>   25.1717    0.0000 </r>
       <r>   26.2985    0.0000 </r>
      </set>
      <set comment="kpoint 28">
       <r>  -16.7168    1.0000 </r>
       <r>  -10.9355    1.0000 </r>
       <r>   -7.0258    1.0000 </r>
       <r>   -3.0194    1.0000 </r>
       <r>    2.5873    0.0000 </r>
       <r>    8.2522    0.0000 </r>
       <r>    9.8563    0.0000 </r>
       <r>   10.9153    0.0000 </r>
       <r>   11.5370    0.0000 </r>
       <r>   13.6764    0.0000 </r>
       <r>   14.0441    0.0000 </r>
       <r>   15.6353    0.0000 </r>
       <r>   16.8985    0.0000 </r>
       <r>   18.6020    0.0000 </r>
       <r>   20.7925    0.0000 </r>
       <r>   21.3053    0.0000 </r>
       <r>   21.8433    0.0000 </r>
       <r>   24.6068    0.0000 </r>
       <r>   25.0950    0.0000 </r>
       <r>   26.1243    0.0000 </r>
      </set>
      <set comment="kpoint 29">
       <r>  -16.6898    1.0000 </r>
       <r>  -10.8843    1.0000 </r>
       <r>   -7.2018    1.0000 </r>
       <r>   -2.9795    1.0000 </r>
       <r>    2.6028    0.0000 </r>
       <r>    8.4711    0.0000 </r>
       <r>    9.9181    0.0000 </r>
       <r>   11.0753    0.0000 </r>
       <r>   11.4387    0.0000 </r>
       <r>   13.7117    0.0000 </r>
       <r>   14.0502    0.0000 </r>
       <r>   15.7106    0.0000 </r>
       <r>   16.7390    0.0000 </r>
       <r>   18.4135    0.0000 </r>
       <r>   20.6033    0.0000 </r>
       <r>   20.9343    0.0000 </r>
       <r>   21.8235    0.0000 </r>
       <r>   24.6216    0.0000 </r>
       <r>   24.9977    0.0000 </r>
       <r>   25.8378    0.0000 </r>
      </set>
      <set comment="kpoint 30">
       <r>  -16.6603    1.0000 </r>
       <r>  -10.8271    1.0000 </r>
       <r>   -7.3898    1.0000 </r>
       <r>   -2.9354    1.0000 </r>
       <r>    2.6174    0.0000 </r>
       <r>    8.6899    0.0000 </r>
       <r>   10.0106    0.0000 </r>
       <r>   11.2471    0.0000 </r>
       <r>   11.3274    0.0000 </r>
       <r>   13.7475    0.0000 </r>
       <r>   14.0614    0.0000 </r>
       <r>   15.7836    0.0000 </r>
       <r>   16.6216    0.0000 </r>
       <r>   18.2033    0.0000 </r>
       <r>   20.1302    0.0000 </r>
       <r>   20.8693    0.0000 </r>
       <r>   21.7266    0.0000 </r>
       <r>   24.5527    0.0000 </r>
       <r>   24.8310    0.0000 </r>
       <r>   25.4449    0.0000 </r>
      </set>
      <set comment="kpoint 31">
       <r>  -16.6284    1.0000 </r>
       <r>  -10.7641    1.0000 </r>
       <r>   -7.5865    1.0000 </r>
       <r>   -2.8876    1.0000 </r>
       <r>    2.6302    0.0000 </r>
       <r>    8.8974    0.0000 </r>
       <r>   10.1398    0.0000 </r>
       <r>   11.2051    0.0000 </r>
       <r>   11.4301    0.0000 </r>
       <r>   13.7844    0.0000 </r>
       <r>   14.0784    0.0000 </r>
       <r>   15.8495    0.0000 </r>
       <r>   16.5471    0.0000 </r>
       <r>   17.9635    0.0000 </r>
       <r>   19.6609    0.0000 </r>
       <r>   20.8373    0.0000 </r>
       <r>   21.5534    0.0000 </r>
       <r>   24.4519    0.0000 </r>
       <r>   24.5098    0.0000 </r>
       <r>   25.2225    0.0000 </r>
      </set>
      <set comment="kpoint 32">
       <r>  -16.5948    1.0000 </r>
       <r>  -10.6961    1.0000 </r>
       <r>   -7.7885    1.0000 </r>
       <r>   -2.8369    1.0000 </r>
       <r>    2.6401    0.0000 </r>
       <r>    9.0846    0.0000 </r>
       <r>   10.3090    0.0000 </r>
       <r>   11.0752    0.0000 </r>
       <r>   11.6234    0.0000 </r>
       <r>   13.8238    0.0000 </r>
       <r>   14.1021    0.0000 </r>
       <r>   15.9027    0.0000 </r>
       <r>   16.5134    0.0000 </r>
       <r>   17.6847    0.0000 </r>
       <r>   19.2503    0.0000 </r>
       <r>   20.8028    0.0000 </r>
       <r>   21.3123    0.0000 </r>
       <r>   24.0782    0.0000 </r>
       <r>   24.3638    0.0000 </r>
       <r>   25.1326    0.0000 </r>
      </set>
      <set comment="kpoint 33">
       <r>  -16.5600    1.0000 </r>
       <r>  -10.6237    1.0000 </r>
       <r>   -7.9924    1.0000 </r>
       <r>   -2.7838    1.0000 </r>
       <r>    2.6461    0.0000 </r>
       <r>    9.2482    0.0000 </r>
       <r>   10.5147    0.0000 </r>
       <r>   10.9419    0.0000 </r>
       <r>   11.8260    0.0000 </r>
       <r>   13.8673    0.0000 </r>
       <r>   14.1333    0.0000 </r>
       <r>   15.9367    0.0000 </r>
       <r>   16.5158    0.0000 </r>
       <r>   17.3614    0.0000 </r>
       <r>   18.9162    0.0000 </r>
       <r>   20.7658    0.0000 </r>
       <r>   21.0190    0.0000 </r>
       <r>   23.6182    0.0000 </r>
       <r>   24.3060    0.0000 </r>
       <r>   25.0967    0.0000 </r>
      </set>
      <set comment="kpoint 34">
       <r>  -16.5245    1.0000 </r>
       <r>  -10.5479    1.0000 </r>
       <r>   -8.1948    1.0000 </r>
       <r>   -2.7293    1.0000 </r>
       <r>    2.6473    0.0000 </r>
       <r>    9.3912    0.0000 </r>
       <r>   10.7459    0.0000 </r>
       <r>   10.8101    0.0000 </r>
       <r>   12.0360    0.0000 </r>
       <r>   13.9166    0.0000 </r>
       <r>   14.1725    0.0000 </r>
       <r>   15.9440    0.0000 </r>
       <r>   16.5475    0.0000 </r>
       <r>   17.0019    0.0000 </r>
       <r>   18.6615    0.0000 </r>
       <r>   20.6925    0.0000 </r>
       <r>   20.7314    0.0000 </r>
       <r>   23.1608    0.0000 </r>
       <r>   24.2795    0.0000 </r>
       <r>   25.0864    0.0000 </r>
      </set>
      <set comment="kpoint 35">
       <r>  -16.4892    1.0000 </r>
       <r>  -10.4705    1.0000 </r>
       <r>   -8.3914    1.0000 </r>
       <r>   -2.6743    1.0000 </r>
       <r>    2.6430    0.0000 </r>
       <r>    9.5198    0.0000 </r>
       <r>   10.6851    0.0000 </r>
       <r>   10.9869    0.0000 </r>
       <r>   12.2503    0.0000 </r>
       <r>   13.9728    0.0000 </r>
       <r>   14.2197    0.0000 </r>
       <r>   15.9148    0.0000 </r>
       <r>   16.6001    0.0000 </r>
       <r>   16.6312    0.0000 </r>
       <r>   18.4758    0.0000 </r>
       <r>   20.3522    0.0000 </r>
       <r>   20.7054    0.0000 </r>
       <r>   22.7181    0.0000 </r>
       <r>   24.2790    0.0000 </r>
       <r>   25.0910    0.0000 </r>
      </set>
      <set comment="kpoint 36">
       <r>  -16.4548    1.0000 </r>
       <r>  -10.3938    1.0000 </r>
       <r>   -8.5776    1.0000 </r>
       <r>   -2.6202    1.0000 </r>
       <r>    2.6330    0.0000 </r>
       <r>    9.6402    0.0000 </r>
       <r>   10.5717    0.0000 </r>
       <r>   11.2208    0.0000 </r>
       <r>   12.4639    0.0000 </r>
       <r>   14.0364    0.0000 </r>
       <r>   14.2735    0.0000 </r>
       <r>   15.8283    0.0000 </r>
       <r>   16.2957    0.0000 </r>
       <r>   16.6632    0.0000 </r>
       <r>   18.3432    0.0000 </r>
       <r>   20.0168    0.0000 </r>
       <r>   20.6945    0.0000 </r>
       <r>   22.2982    0.0000 </r>
       <r>   24.2980    0.0000 </r>
       <r>   25.1045    0.0000 </r>
      </set>
      <set comment="kpoint 37">
       <r>  -16.4221    1.0000 </r>
       <r>  -10.3217    1.0000 </r>
       <r>   -8.7475    1.0000 </r>
       <r>   -2.5682    1.0000 </r>
       <r>    2.6173    0.0000 </r>
       <r>    9.7568    0.0000 </r>
       <r>   10.4743    0.0000 </r>
       <r>   11.4306    0.0000 </r>
       <r>   12.6677    0.0000 </r>
       <r>   14.1073    0.0000 </r>
       <r>   14.3283    0.0000 </r>
       <r>   15.6476    0.0000 </r>
       <r>   16.0663    0.0000 </r>
       <r>   16.7234    0.0000 </r>
       <r>   18.2475    0.0000 </r>
       <r>   19.7055    0.0000 </r>
       <r>   20.7046    0.0000 </r>
       <r>   21.9082    0.0000 </r>
       <r>   24.3308    0.0000 </r>
       <r>   25.1225    0.0000 </r>
      </set>
      <set comment="kpoint 38">
       <r>  -16.3923    1.0000 </r>
       <r>  -10.2596    1.0000 </r>
       <r>   -8.8933    1.0000 </r>
       <r>   -2.5202    1.0000 </r>
       <r>    2.5967    0.0000 </r>
       <r>    9.8722    0.0000 </r>
       <r>   10.3964    0.0000 </r>
       <r>   11.6001    0.0000 </r>
       <r>   12.8457    0.0000 </r>
       <r>   14.1842    0.0000 </r>
       <r>   14.3706    0.0000 </r>
       <r>   15.4188    0.0000 </r>
       <r>   15.9449    0.0000 </r>
       <r>   16.7644    0.0000 </r>
       <r>   18.1736    0.0000 </r>
       <r>   19.4399    0.0000 </r>
       <r>   20.7386    0.0000 </r>
       <r>   21.5573    0.0000 </r>
       <r>   24.3721    0.0000 </r>
       <r>   25.1412    0.0000 </r>
      </set>
      <set comment="kpoint 39">
       <r>  -16.3664    1.0000 </r>
       <r>  -10.2156    1.0000 </r>
       <r>   -9.0050    1.0000 </r>
       <r>   -2.4778    1.0000 </r>
       <r>    2.5724    0.0000 </r>
       <r>    9.9873    0.0000 </r>
       <r>   10.3406    0.0000 </r>
       <r>   11.7146    0.0000 </r>
       <r>   12.9713    0.0000 </r>
       <r>   14.2648    0.0000 </r>
       <r>   14.3851    0.0000 </r>
       <r>   15.2521    0.0000 </r>
       <r>   15.8798    0.0000 </r>
       <r>   16.7678    0.0000 </r>
       <r>   18.1093    0.0000 </r>
       <r>   19.2429    0.0000 </r>
       <r>   20.7918    0.0000 </r>
       <r>   21.2617    0.0000 </r>
       <r>   24.4175    0.0000 </r>
       <r>   25.1579    0.0000 </r>
      </set>
      <set comment="kpoint 40">
       <r>  -16.3455    1.0000 </r>
       <r>  -10.1981    1.0000 </r>
       <r>   -9.0722    1.0000 </r>
       <r>   -2.4432    1.0000 </r>
       <r>    2.5464    0.0000 </r>
       <r>   10.1013    0.0000 </r>
       <r>   10.3086    0.0000 </r>
       <r>   11.7619    0.0000 </r>
       <r>   13.0090    0.0000 </r>
       <r>   14.3450    0.0000 </r>
       <r>   14.3872    0.0000 </r>
       <r>   15.1873    0.0000 </r>
       <r>   15.8628    0.0000 </r>
       <r>   16.7195    0.0000 </r>
       <r>   18.0469    0.0000 </r>
       <r>   19.1338    0.0000 </r>
       <r>   20.8079    0.0000 </r>
       <r>   21.0871    0.0000 </r>
       <r>   24.4622    0.0000 </r>
       <r>   25.1700    0.0000 </r>
      </set>
      <set comment="kpoint 41">
       <r>  -16.3455    1.0000 </r>
       <r>  -10.1981    1.0000 </r>
       <r>   -9.0722    1.0000 </r>
       <r>   -2.4432    1.0000 </r>
       <r>    2.5464    0.0000 </r>
       <r>   10.1013    0.0000 </r>
       <r>   10.3086    0.0000 </r>
       <r>   11.7619    0.0000 </r>
       <r>   13.0090    0.0000 </r>
       <r>   14.3450    0.0000 </r>
       <r>   14.3872    0.0000 </r>
       <r>   15.1873    0.0000 </r>
       <r>   15.8628    0.0000 </r>
       <r>   16.7195    0.0000 </r>
       <r>   18.0469    0.0000 </r>
       <r>   19.1338    0.0000 </r>
       <r>   20.8079    0.0000 </r>
       <r>   21.0871    0.0000 </r>
       <r>   24.4622    0.0000 </r>
       <r>   25.1700    0.0000 </r>
      </set>
      <set comment="kpoint 42">
       <r>  -16.4797    1.0000 </r>
       <r>  -10.1711    1.0000 </r>
       <r>   -8.7991    1.0000 </r>
       <r>   -2.6648    1.0000 </r>
       <r>    2.7455    0.0000 </r>
       <r>    9.3891    0.0000 </r>
       <r>   10.4234    0.0000 </r>
       <r>   11.6913    0.0000 </r>
       <r>   12.8973    0.0000 </r>
       <r>   13.9033    0.0000 </r>
       <r>   14.4468    0.0000 </r>
       <r>   15.2769    0.0000 </r>
       <r>   15.8859    0.0000 </r>
       <r>   17.2079    0.0000 </r>
       <r>   18.4754    0.0000 </r>
       <r>   19.5405    0.0000 </r>
       <r>   21.1863    0.0000 </r>
       <r>   21.4612    0.0000 </r>
       <r>   24.1698    0.0000 </r>
       <r>   25.1222    0.0000 </r>
      </set>
      <set comment="kpoint 43">
       <r>  -16.6636    1.0000 </r>
       <r>  -10.0596    1.0000 </r>
       <r>   -8.4952    1.0000 </r>
       <r>   -2.9587    1.0000 </r>
       <r>    3.0268    0.0000 </r>
       <r>    8.6565    0.0000 </r>
       <r>   10.4755    0.0000 </r>
       <r>   11.5709    0.0000 </r>
       <r>   12.5025    0.0000 </r>
       <r>   13.5977    0.0000 </r>
       <r>   14.4995    0.0000 </r>
       <r>   15.3927    0.0000 </r>
       <r>   16.2135    0.0000 </r>
       <r>   17.7461    0.0000 </r>
       <r>   18.9149    0.0000 </r>
       <r>   19.9906    0.0000 </r>
       <r>   21.6104    0.0000 </r>
       <r>   21.8512    0.0000 </r>
       <r>   23.8592    0.0000 </r>
       <r>   25.1178    0.0000 </r>
      </set>
      <set comment="kpoint 44">
       <r>  -16.8884    1.0000 </r>
       <r>   -9.8650    1.0000 </r>
       <r>   -8.1684    1.0000 </r>
       <r>   -3.3056    1.0000 </r>
       <r>    3.3783    0.0000 </r>
       <r>    7.9395    0.0000 </r>
       <r>   10.3868    0.0000 </r>
       <r>   11.3793    0.0000 </r>
       <r>   12.0228    0.0000 </r>
       <r>   13.5266    0.0000 </r>
       <r>   14.2526    0.0000 </r>
       <r>   15.8367    0.0000 </r>
       <r>   16.7202    0.0000 </r>
       <r>   18.3098    0.0000 </r>
       <r>   19.2471    0.0000 </r>
       <r>   20.4329    0.0000 </r>
       <r>   22.0469    0.0000 </r>
       <r>   22.2320    0.0000 </r>
       <r>   23.6177    0.0000 </r>
       <r>   25.1663    0.0000 </r>
      </set>
      <set comment="kpoint 45">
       <r>  -17.1428    1.0000 </r>
       <r>   -9.5958    1.0000 </r>
       <r>   -7.8234    1.0000 </r>
       <r>   -3.6863    1.0000 </r>
       <r>    3.7840    0.0000 </r>
       <r>    7.2523    0.0000 </r>
       <r>   10.1399    0.0000 </r>
       <r>   11.1049    0.0000 </r>
       <r>   11.5515    0.0000 </r>
       <r>   13.7133    0.0000 </r>
       <r>   13.9134    0.0000 </r>
       <r>   16.4145    0.0000 </r>
       <r>   17.3265    0.0000 </r>
       <r>   18.8698    0.0000 </r>
       <r>   19.3880    0.0000 </r>
       <r>   20.8049    0.0000 </r>
       <r>   22.4694    0.0000 </r>
       <r>   22.6547    0.0000 </r>
       <r>   23.5499    0.0000 </r>
       <r>   25.2079    0.0000 </r>
      </set>
      <set comment="kpoint 46">
       <r>  -17.4153    1.0000 </r>
       <r>   -9.2623    1.0000 </r>
       <r>   -7.4638    1.0000 </r>
       <r>   -4.0838    1.0000 </r>
       <r>    4.2267    0.0000 </r>
       <r>    6.6014    0.0000 </r>
       <r>    9.7921    0.0000 </r>
       <r>   10.7353    0.0000 </r>
       <r>   11.1428    0.0000 </r>
       <r>   13.5757    0.0000 </r>
       <r>   14.1019    0.0000 </r>
       <r>   16.9740    0.0000 </r>
       <r>   18.0070    0.0000 </r>
       <r>   19.3559    0.0000 </r>
       <r>   19.3720    0.0000 </r>
       <r>   21.0779    0.0000 </r>
       <r>   22.8804    0.0000 </r>
       <r>   23.1362    0.0000 </r>
       <r>   23.7487    0.0000 </r>
       <r>   25.2106    0.0000 </r>
      </set>
      <set comment="kpoint 47">
       <r>  -17.6959    1.0000 </r>
       <r>   -8.8751    1.0000 </r>
       <r>   -7.0931    1.0000 </r>
       <r>   -4.4848    1.0000 </r>
       <r>    4.6864    0.0000 </r>
       <r>    5.9901    0.0000 </r>
       <r>    9.4135    0.0000 </r>
       <r>   10.2981    0.0000 </r>
       <r>   10.7977    0.0000 </r>
       <r>   13.2569    0.0000 </r>
       <r>   14.6210    0.0000 </r>
       <r>   17.3091    0.0000 </r>
       <r>   18.7473    0.0000 </r>
       <r>   19.3732    0.0000 </r>
       <r>   19.7192    0.0000 </r>
       <r>   21.3542    0.0000 </r>
       <r>   23.1657    0.0000 </r>
       <r>   23.6999    0.0000 </r>
       <r>   24.2161    0.0000 </r>
       <r>   25.2900    0.0000 </r>
      </set>
      <set comment="kpoint 48">
       <r>  -17.9761    1.0000 </r>
       <r>   -8.4438    1.0000 </r>
       <r>   -6.7151    1.0000 </r>
       <r>   -4.8792    1.0000 </r>
       <r>    5.1379    0.0000 </r>
       <r>    5.4204    0.0000 </r>
       <r>    9.0595    0.0000 </r>
       <r>    9.8469    0.0000 </r>
       <r>   10.4865    0.0000 </r>
       <r>   12.9555    0.0000 </r>
       <r>   15.2138    0.0000 </r>
       <r>   17.1741    0.0000 </r>
       <r>   19.5364    0.0000 </r>
       <r>   19.7520    0.0000 </r>
       <r>   19.8541    0.0000 </r>
       <r>   21.7737    0.0000 </r>
       <r>   23.2094    0.0000 </r>
       <r>   24.3341    0.0000 </r>
       <r>   24.8774    0.0000 </r>
       <r>   25.5897    0.0000 </r>
      </set>
      <set comment="kpoint 49">
       <r>  -18.2493    1.0000 </r>
       <r>   -7.9773    1.0000 </r>
       <r>   -6.3341    1.0000 </r>
       <r>   -5.2589    1.0000 </r>
       <r>    4.8938    0.0000 </r>
       <r>    5.5449    0.0000 </r>
       <r>    8.7783    0.0000 </r>
       <r>    9.4093    0.0000 </r>
       <r>   10.2007    0.0000 </r>
       <r>   12.6635    0.0000 </r>
       <r>   15.8294    0.0000 </r>
       <r>   16.6718    0.0000 </r>
       <r>   19.8761    0.0000 </r>
       <r>   20.3635    0.0000 </r>
       <r>   20.4422    0.0000 </r>
       <r>   22.3194    0.0000 </r>
       <r>   23.0764    0.0000 </r>
       <r>   24.9511    0.0000 </r>
       <r>   25.6648    0.0000 </r>
       <r>   26.1147    0.0000 </r>
      </set>
      <set comment="kpoint 50">
       <r>  -18.5099    1.0000 </r>
       <r>   -7.4842    1.0000 </r>
       <r>   -5.9548    1.0000 </r>
       <r>   -5.6181    1.0000 </r>
       <r>    4.4108    0.0000 </r>
       <r>    5.8560    0.0000 </r>
       <r>    8.6235    0.0000 </r>
       <r>    8.9964    0.0000 </r>
       <r>    9.9440    0.0000 </r>
       <r>   12.3716    0.0000 </r>
       <r>   16.0120    0.0000 </r>
       <r>   16.4055    0.0000 </r>
       <r>   19.9368    0.0000 </r>
       <r>   21.1721    0.0000 </r>
       <r>   21.2820    0.0000 </r>
       <r>   22.9100    0.0000 </r>
       <r>   22.9122    0.0000 </r>
       <r>   25.4357    0.0000 </r>
       <r>   26.5381    0.0000 </r>
       <r>   26.8160    0.0000 </r>
      </set>
      <set comment="kpoint 51">
       <r>  -18.7541    1.0000 </r>
       <r>   -6.9729    1.0000 </r>
       <r>   -5.9523    1.0000 </r>
       <r>   -5.5829    1.0000 </r>
       <r>    3.9719    0.0000 </r>
       <r>    6.0185    0.0000 </r>
       <r>    8.6132    0.0000 </r>
       <r>    8.6435    0.0000 </r>
       <r>    9.7216    0.0000 </r>
       <r>   12.0690    0.0000 </r>
       <r>   15.3023    0.0000 </r>
       <r>   16.8640    0.0000 </r>
       <r>   20.1632    0.0000 </r>
       <r>   21.7460    0.0000 </r>
       <r>   22.1957    0.0000 </r>
       <r>   22.9742    0.0000 </r>
       <r>   23.4897    0.0000 </r>
       <r>   25.7164    0.0000 </r>
       <r>   27.4726    0.0000 </r>
       <r>   27.6590    0.0000 </r>
      </set>
      <set comment="kpoint 52">
       <r>  -18.9786    1.0000 </r>
       <r>   -6.4524    1.0000 </r>
       <r>   -6.2579    1.0000 </r>
       <r>   -5.2241    1.0000 </r>
       <r>    3.5775    0.0000 </r>
       <r>    6.0258    0.0000 </r>
       <r>    8.2628    0.0000 </r>
       <r>    8.8376    0.0000 </r>
       <r>    9.5384    0.0000 </r>
       <r>   11.7449    0.0000 </r>
       <r>   14.6021    0.0000 </r>
       <r>   17.1482    0.0000 </r>
       <r>   20.6335    0.0000 </r>
       <r>   21.8012    0.0000 </r>
       <r>   23.0646    0.0000 </r>
       <r>   23.6062    0.0000 </r>
       <r>   24.0288    0.0000 </r>
       <r>   25.8606    0.0000 </r>
       <r>   28.4400    0.0000 </r>
       <r>   28.6058    0.0000 </r>
      </set>
      <set comment="kpoint 53">
       <r>  -19.1812    1.0000 </r>
       <r>   -6.5325    1.0000 </r>
       <r>   -5.9328    1.0000 </r>
       <r>   -4.8851    1.0000 </r>
       <r>    3.2278    0.0000 </r>
       <r>    5.9275    0.0000 </r>
       <r>    7.9468    0.0000 </r>
       <r>    9.1459    0.0000 </r>
       <r>    9.3966    0.0000 </r>
       <r>   11.3894    0.0000 </r>
       <r>   13.9514    0.0000 </r>
       <r>   17.2751    0.0000 </r>
       <r>   21.3389    0.0000 </r>
       <r>   21.6068    0.0000 </r>
       <r>   23.7018    0.0000 </r>
       <r>   24.5197    0.0000 </r>
       <r>   24.5794    0.0000 </r>
       <r>   26.0945    0.0000 </r>
       <r>   29.1746    0.0000 </r>
       <r>   29.6282    0.0000 </r>
      </set>
      <set comment="kpoint 54">
       <r>  -19.3597    1.0000 </r>
       <r>   -6.7737    1.0000 </r>
       <r>   -5.4260    1.0000 </r>
       <r>   -4.5726    1.0000 </r>
       <r>    2.9228    0.0000 </r>
       <r>    5.7821    0.0000 </r>
       <r>    7.6662    0.0000 </r>
       <r>    9.2971    0.0000 </r>
       <r>    9.4995    0.0000 </r>
       <r>   10.9994    0.0000 </r>
       <r>   13.3803    0.0000 </r>
       <r>   17.3081    0.0000 </r>
       <r>   21.3639    0.0000 </r>
       <r>   22.2169    0.0000 </r>
       <r>   23.9449    0.0000 </r>
       <r>   24.9744    0.0000 </r>
       <r>   25.6830    0.0000 </r>
       <r>   26.6766    0.0000 </r>
       <r>   29.0265    0.0000 </r>
       <r>   30.5881    0.0000 </r>
      </set>
      <set comment="kpoint 55">
       <r>  -19.5129    1.0000 </r>
       <r>   -6.9801    1.0000 </r>
       <r>   -4.9462    1.0000 </r>
       <r>   -4.2937    1.0000 </r>
       <r>    2.6627    0.0000 </r>
       <r>    5.6278    0.0000 </r>
       <r>    7.4219    0.0000 </r>
       <r>    9.2377    0.0000 </r>
       <r>    9.8487    0.0000 </r>
       <r>   10.5851    0.0000 </r>
       <r>   12.9035    0.0000 </r>
       <r>   17.3007    0.0000 </r>
       <r>   21.1217    0.0000 </r>
       <r>   23.2081    0.0000 </r>
       <r>   23.8856    0.0000 </r>
       <r>   25.4152    0.0000 </r>
       <r>   26.8581    0.0000 </r>
       <r>   27.5886    0.0000 </r>
       <r>   28.8087    0.0000 </r>
       <r>   31.4030    0.0000 </r>
      </set>
      <set comment="kpoint 56">
       <r>  -19.6395    1.0000 </r>
       <r>   -7.1505    1.0000 </r>
       <r>   -4.5103    1.0000 </r>
       <r>   -4.0549    1.0000 </r>
       <r>    2.4478    0.0000 </r>
       <r>    5.4860    0.0000 </r>
       <r>    7.2150    0.0000 </r>
       <r>    9.2131    0.0000 </r>
       <r>   10.1620    0.0000 </r>
       <r>   10.1737    0.0000 </r>
       <r>   12.5209    0.0000 </r>
       <r>   17.2827    0.0000 </r>
       <r>   20.8990    0.0000 </r>
       <r>   23.7144    0.0000 </r>
       <r>   24.2686    0.0000 </r>
       <r>   25.8642    0.0000 </r>
       <r>   28.0877    0.0000 </r>
       <r>   28.6327    0.0000 </r>
       <r>   28.6803    0.0000 </r>
       <r>   31.9768    0.0000 </r>
      </set>
      <set comment="kpoint 57">
       <r>  -19.7388    1.0000 </r>
       <r>   -7.2838    1.0000 </r>
       <r>   -4.1380    1.0000 </r>
       <r>   -3.8621    1.0000 </r>
       <r>    2.2787    0.0000 </r>
       <r>    5.3682    0.0000 </r>
       <r>    7.0471    0.0000 </r>
       <r>    9.2150    0.0000 </r>
       <r>    9.8028    0.0000 </r>
       <r>   10.4199    0.0000 </r>
       <r>   12.2254    0.0000 </r>
       <r>   17.2671    0.0000 </r>
       <r>   20.7090    0.0000 </r>
       <r>   23.5342    0.0000 </r>
       <r>   25.3547    0.0000 </r>
       <r>   26.3318    0.0000 </r>
       <r>   28.5235    0.0000 </r>
       <r>   29.3642    0.0000 </r>
       <r>   29.8681    0.0000 </r>
       <r>   31.9243    0.0000 </r>
      </set>
      <set comment="kpoint 58">
       <r>  -19.8101    1.0000 </r>
       <r>   -7.3796    1.0000 </r>
       <r>   -3.8505    1.0000 </r>
       <r>   -3.7206    1.0000 </r>
       <r>    2.1564    0.0000 </r>
       <r>    5.2806    0.0000 </r>
       <r>    6.9217    0.0000 </r>
       <r>    9.2316    0.0000 </r>
       <r>    9.5093    0.0000 </r>
       <r>   10.6102    0.0000 </r>
       <r>   12.0119    0.0000 </r>
       <r>   17.2574    0.0000 </r>
       <r>   20.5631    0.0000 </r>
       <r>   23.3886    0.0000 </r>
       <r>   26.3843    0.0000 </r>
       <r>   26.8026    0.0000 </r>
       <r>   28.5313    0.0000 </r>
       <r>   30.6802    0.0000 </r>
       <r>   31.1066    0.0000 </r>
       <r>   31.2784    0.0000 </r>
      </set>
      <set comment="kpoint 59">
       <r>  -19.8530    1.0000 </r>
       <r>   -7.4372    1.0000 </r>
       <r>   -3.6677    1.0000 </r>
       <r>   -3.6341    1.0000 </r>
       <r>    2.0822    0.0000 </r>
       <r>    5.2270    0.0000 </r>
       <r>    6.8434    0.0000 </r>
       <r>    9.2497    0.0000 </r>
       <r>    9.3217    0.0000 </r>
       <r>   10.7266    0.0000 </r>
       <r>   11.8808    0.0000 </r>
       <r>   17.2529    0.0000 </r>
       <r>   20.4711    0.0000 </r>
       <r>   23.2963    0.0000 </r>
       <r>   27.1422    0.0000 </r>
       <r>   27.2064    0.0000 </r>
       <r>   28.7957    0.0000 </r>
       <r>   30.6829    0.0000 </r>
       <r>   31.0217    0.0000 </r>
       <r>   32.0166    0.0000 </r>
      </set>
      <set comment="kpoint 60">
       <r>  -19.8673    1.0000 </r>
       <r>   -7.4564    1.0000 </r>
       <r>   -3.6050    1.0000 </r>
       <r>   -3.6049    1.0000 </r>
       <r>    2.0573    0.0000 </r>
       <r>    5.2089    0.0000 </r>
       <r>    6.8167    0.0000 </r>
       <r>    9.2572    0.0000 </r>
       <r>    9.2572    0.0000 </r>
       <r>   10.7658    0.0000 </r>
       <r>   11.8364    0.0000 </r>
       <r>   17.2516    0.0000 </r>
       <r>   20.4396    0.0000 </r>
       <r>   23.2649    0.0000 </r>
       <r>   27.3841    0.0000 </r>
       <r>   27.3842    0.0000 </r>
       <r>   29.1674    0.0000 </r>
       <r>   30.4359    0.0000 </r>
       <r>   30.4384    0.0000 </r>
       <r>   33.0743    0.0000 </r>
      </set>
      <set comment="kpoint 61">
       <r>  -19.8673    1.0000 </r>
       <r>   -7.4564    1.0000 </r>
       <r>   -3.6050    1.0000 </r>
       <r>   -3.6049    1.0000 </r>
       <r>    2.0573    0.0000 </r>
       <r>    5.2089    0.0000 </r>
       <r>    6.8167    0.0000 </r>
       <r>    9.2572    0.0000 </r>
       <r>    9.2572    0.0000 </r>
       <r>   10.7658    0.0000 </r>
       <r>   11.8364    0.0000 </r>
       <r>   17.2516    0.0000 </r>
       <r>   20.4396    0.0000 </r>
       <r>   23.2649    0.0000 </r>
       <r>   27.3841    0.0000 </r>
       <r>   27.3842    0.0000 </r>
       <r>   29.1674    0.0000 </r>
       <r>   30.4359    0.0000 </r>
       <r>   30.4384    0.0000 </r>
       <r>   33.0743    0.0000 </r>
      </set>
      <set comment="kpoint 62">
       <r>  -19.8674    1.0000 </r>
       <r>   -7.4564    1.0000 </r>
       <r>   -3.6051    1.0000 </r>
       <r>   -3.6050    1.0000 </r>
       <r>    2.0602    0.0000 </r>
       <r>    5.1902    0.0000 </r>
       <r>    6.8370    0.0000 </r>
       <r>    9.2572    0.0000 </r>
       <r>    9.2572    0.0000 </r>
       <r>   10.7621    0.0000 </r>
[...]
       </set>
       <set comment="band 16">
        <r>  0.0000  0.0000  0.0775  0.0000  0.0000  0.0000  0.0000  0.0000  0.0000 </r>
        <r>  0.0000  0.0000  0.0019  0.0000  0.0000  0.0000  0.0000  0.0000  0.0000 </r>
       </set>
       <set comment="band 17">
        <r>  0.0026  0.0024  0.0000  0.0020  0.0000  0.0000  0.0000  0.0000  0.0000 </r>
        <r>  0.0188  0.0008  0.0000  0.0021  0.0000  0.0000  0.0000  0.0000  0.0000 </r>
       </set>
       <set comment="band 18">
        <r>  0.0000  0.0000  0.0005  0.0000  0.0000  0.0000  0.0000  0.0000  0.0000 </r>
        <r>  0.0000  0.0000  0.0001  0.0000  0.0000  0.0000  0.0000  0.0000  0.0000 </r>
       </set>
       <set comment="band 19">
        <r>  0.0204  0.0053  0.0000  0.0028  0.0000  0.0000  0.0000  0.0000  0.0000 </r>
        <r>  0.0030  0.0001  0.0000  0.0095  0.0000  0.0000  0.0000  0.0000  0.0000 </r>
       </set>
       <set comment="band 20">
        <r>  0.0000  0.0000  0.0001  0.0000  0.0000  0.0000  0.0000  0.0000  0.0000 </r>
        <r>  0.0000  0.0000  0.0000  0.0000  0.0000  0.0000  0.0000  0.0000  0.0000 </r>
       </set>
      </set>
      <set comment="kpoint 137">
       <set comment="band 1">
        <r>  0.2605  0.0000  0.0000  0.0067  0.0000  0.0000  0.0000  0.0000  0.0000 </r>
        <r>  0.5088  0.0000  0.0000  0.0016  0.0000  0.0000  0.0000  0.0000  0.0000 </r>
       </set>
       <set comment="band 2">
        <r>  0.0000  0.0000  0.1917  0.0000  0.0000  0.0000  0.0000  0.0000  0.0000 </r>
        <r>  0.0000  0.0000  0.3225  0.0000  0.0000  0.0000  0.0000  0.0000  0.0000 </r>
       </set>
       <set comment="band 3">
        <r>  0.0204  0.0250  0.0000  0.2358  0.0000  0.0000  0.0000  0.0000  0.0000 </r>
        <r>  0.0149  0.0001  0.0000  0.5938  0.0000  0.0000  0.0000  0.0000  0.0000 </r>
       </set>
       <set comment="band 4">
        <r>  0.0006  0.2567  0.0000  0.0265  0.0000  0.0000  0.0000  0.0000  0.0000 </r>
        <r>  0.0000  0.6149  0.0000  0.0001  0.0000  0.0000  0.0000  0.0000  0.0000 </r>
       </set>
       <set comment="band 5">
        <r>  0.0000  0.0000  0.0039  0.0000  0.0000  0.0000  0.0000  0.0000  0.0000 </r>
        <r>  0.0000  0.0000  0.0493  0.0000  0.0000  0.0000  0.0000  0.0000  0.0000 </r>
       </set>
       <set comment="band 6">
        <r>  0.0005  0.0002  0.0000  0.0004  0.0000  0.0000  0.0000  0.0000  0.0000 </r>
        <r>  0.0662  0.0001  0.0000  0.0063  0.0000  0.0000  0.0000  0.0000  0.0000 </r>
       </set>
       <set comment="band 7">
        <r>  0.0000  0.0000  0.0860  0.0000  0.0000  0.0000  0.0000  0.0000  0.0000 </r>
        <r>  0.0000  0.0000  0.3433  0.0000  0.0000  0.0000  0.0000  0.0000  0.0000 </r>
       </set>
       <set comment="band 8">
        <r>  0.0009  0.0295  0.0000  0.4142  0.0000  0.0000  0.0000  0.0000  0.0000 </r>
        <r>  0.0423  0.0066  0.0000  0.0677  0.0000  0.0000  0.0000  0.0000  0.0000 </r>
       </set>
       <set comment="band 9">
        <r>  0.0270  0.3858  0.0000  0.0358  0.0000  0.0000  0.0000  0.0000  0.0000 </r>
        <r>  0.0197  0.1111  0.0000  0.0001  0.0000  0.0000  0.0000  0.0000  0.0000 </r>
       </set>
       <set comment="band 10">
        <r>  0.1438  0.0563  0.0000  0.0025  0.0000  0.0000  0.0000  0.0000  0.0000 </r>
        <r>  0.1797  0.0062  0.0000  0.0580  0.0000  0.0000  0.0000  0.0000  0.0000 </r>
       </set>
       <set comment="band 11">
        <r>  0.0000  0.0000  0.3694  0.0000  0.0000  0.0000  0.0000  0.0000  0.0000 </r>
        <r>  0.0000  0.0000  0.0607  0.0000  0.0000  0.0000  0.0000  0.0000  0.0000 </r>
       </set>
       <set comment="band 12">
        <r>  0.1702  0.0005  0.0000  0.0001  0.0000  0.0000  0.0000  0.0000  0.0000 </r>
        <r>  0.0373  0.0000  0.0000  0.0117  0.0000  0.0000  0.0000  0.0000  0.0000 </r>
       </set>
       <set comment="band 13">
        <r>  0.0000  0.0000  0.1109  0.0000  0.0000  0.0000  0.0000  0.0000  0.0000 </r>
        <r>  0.0000  0.0000  0.0405  0.0000  0.0000  0.0000  0.0000  0.0000  0.0000 </r>
       </set>
       <set comment="band 14">
        <r>  0.1417  0.0000  0.0000  0.0448  0.0000  0.0000  0.0000  0.0000  0.0000 </r>
        <r>  0.0033  0.0001  0.0000  0.0097  0.0000  0.0000  0.0000  0.0000  0.0000 </r>
       </set>
       <set comment="band 15">
        <r>  0.0000  0.0000  0.0026  0.0000  0.0000  0.0000  0.0000  0.0000  0.0000 </r>
        <r>  0.0000  0.0000  0.0091  0.0000  0.0000  0.0000  0.0000  0.0000  0.0000 </r>
       </set>
       <set comment="band 16">
        <r>  0.0000  0.0000  0.0444  0.0000  0.0000  0.0000  0.0000  0.0000  0.0000 </r>
        <r>  0.0000  0.0000  0.0035  0.0000  0.0000  0.0000  0.0000  0.0000  0.0000 </r>
       </set>
       <set comment="band 17">
        <r>  0.0211  0.0002  0.0000  0.0027  0.0000  0.0000  0.0000  0.0000  0.0000 </r>
        <r>  0.0103  0.0001  0.0000  0.0000  0.0000  0.0000  0.0000  0.0000  0.0000 </r>
       </set>
       <set comment="band 18">
        <r>  0.0000  0.0000  0.0004  0.0000  0.0000  0.0000  0.0000  0.0000  0.0000 </r>
        <r>  0.0000  0.0000  0.0001  0.0000  0.0000  0.0000  0.0000  0.0000  0.0000 </r>
       </set>
       <set comment="band 19">
        <r>  0.0149  0.0073  0.0000  0.0005  0.0000  0.0000  0.0000  0.0000  0.0000 </r>
        <r>  0.0091  0.0009  0.0000  0.0156  0.0000  0.0000  0.0000  0.0000  0.0000 </r>
       </set>
       <set comment="band 20">
        <r>  0.0000  0.0000  0.0006  0.0000  0.0000  0.0000  0.0000  0.0000  0.0000 </r>
        <r>  0.0000  0.0000  0.0005  0.0000  0.0000  0.0000  0.0000  0.0000  0.0000 </r>
       </set>
      </set>
      <set comment="kpoint 138">
       <set comment="band 1">
        <r>  0.2645  0.0000  0.0000  0.0030  0.0000  0.0000  0.0000  0.0000  0.0000 </r>
        <r>  0.5081  0.0000  0.0000  0.0007  0.0000  0.0000  0.0000  0.0000  0.0000 </r>
       </set>
       <set comment="band 2">
        <r>  0.0000  0.0000  0.1929  0.0000  0.0000  0.0000  0.0000  0.0000  0.0000 </r>
        <r>  0.0000  0.0000  0.3206  0.0000  0.0000  0.0000  0.0000  0.0000  0.0000 </r>
       </set>
       <set comment="band 3">
        <r>  0.0096  0.0119  0.0000  0.2551  0.0000  0.0000  0.0000  0.0000  0.0000 </r>
        <r>  0.0071  0.0001  0.0000  0.6119  0.0000  0.0000  0.0000  0.0000  0.0000 </r>
       </set>
       <set comment="band 4">
        <r>  0.0001  0.2652  0.0000  0.0122  0.0000  0.0000  0.0000  0.0000  0.0000 </r>
        <r>  0.0000  0.6225  0.0000  0.0001  0.0000  0.0000  0.0000  0.0000  0.0000 </r>
       </set>
       <set comment="band 5">
        <r>  0.0000  0.0000  0.0043  0.0000  0.0000  0.0000  0.0000  0.0000  0.0000 </r>
        <r>  0.0000  0.0000  0.0479  0.0000  0.0000  0.0000  0.0000  0.0000  0.0000 </r>
       </set>
       <set comment="band 6">
        <r>  0.0007  0.0001  0.0000  0.0003  0.0000  0.0000  0.0000  0.0000  0.0000 </r>
        <r>  0.0693  0.0000  0.0000  0.0032  0.0000  0.0000  0.0000  0.0000  0.0000 </r>
       </set>
       <set comment="band 7">
        <r>  0.0000  0.0000  0.0693  0.0000  0.0000  0.0000  0.0000  0.0000  0.0000 </r>
        <r>  0.0000  0.0000  0.3353  0.0000  0.0000  0.0000  0.0000  0.0000  0.0000 </r>
       </set>
       <set comment="band 8">
        <r>  0.0013  0.0157  0.0000  0.4429  0.0000  0.0000  0.0000  0.0000  0.0000 </r>
        <r>  0.0262  0.0028  0.0000  0.0843  0.0000  0.0000  0.0000  0.0000  0.0000 </r>
       </set>
       <set comment="band 9">
        <r>  0.0053  0.4485  0.0000  0.0185  0.0000  0.0000  0.0000  0.0000  0.0000 </r>
        <r>  0.0039  0.1113  0.0000  0.0009  0.0000  0.0000  0.0000  0.0000  0.0000 </r>
       </set>
       <set comment="band 10">
        <r>  0.1666  0.0124  0.0000  0.0070  0.0000  0.0000  0.0000  0.0000  0.0000 </r>
        <r>  0.2184  0.0009  0.0000  0.0310  0.0000  0.0000  0.0000  0.0000  0.0000 </r>
       </set>
       <set comment="band 11">
        <r>  0.0000  0.0000  0.3860  0.0000  0.0000  0.0000  0.0000  0.0000  0.0000 </r>
        <r>  0.0000  0.0000  0.0798  0.0000  0.0000  0.0000  0.0000  0.0000  0.0000 </r>
       </set>
       <set comment="band 12">
        <r>  0.1631  0.0001  0.0000  0.0000  0.0000  0.0000  0.0000  0.0000  0.0000 </r>
        <r>  0.0388  0.0000  0.0000  0.0054  0.0000  0.0000  0.0000  0.0000  0.0000 </r>
       </set>
       <set comment="band 13">
        <r>  0.1603  0.0000  0.0000  0.0204  0.0000  0.0000  0.0000  0.0000  0.0000 </r>
        <r>  0.0036  0.0000  0.0000  0.0043  0.0000  0.0000  0.0000  0.0000  0.0000 </r>
       </set>
       <set comment="band 14">
        <r>  0.0000  0.0000  0.1371  0.0000  0.0000  0.0000  0.0000  0.0000  0.0000 </r>
        <r>  0.0000  0.0000  0.0394  0.0000  0.0000  0.0000  0.0000  0.0000  0.0000 </r>
       </set>
       <set comment="band 15">
        <r>  0.0000  0.0000  0.0004  0.0000  0.0000  0.0000  0.0000  0.0000  0.0000 </r>
        <r>  0.0000  0.0000  0.0019  0.0000  0.0000  0.0000  0.0000  0.0000  0.0000 </r>
       </set>
       <set comment="band 16">
        <r>  0.0000  0.0000  0.0195  0.0000  0.0000  0.0000  0.0000  0.0000  0.0000 </r>
        <r>  0.0000  0.0000  0.0030  0.0000  0.0000  0.0000  0.0000  0.0000  0.0000 </r>
       </set>
       <set comment="band 17">
        <r>  0.0305  0.0000  0.0000  0.0014  0.0000  0.0000  0.0000  0.0000  0.0000 </r>
        <r>  0.0083  0.0000  0.0000  0.0000  0.0000  0.0000  0.0000  0.0000  0.0000 </r>
       </set>
       <set comment="band 18">
        <r>  0.0000  0.0000  0.0002  0.0000  0.0000  0.0000  0.0000  0.0000  0.0000 </r>
        <r>  0.0000  0.0000  0.0000  0.0000  0.0000  0.0000  0.0000  0.0000  0.0000 </r>
       </set>
       <set comment="band 19">
        <r>  0.0000  0.0000  0.0017  0.0000  0.0000  0.0000  0.0000  0.0000  0.0000 </r>
        <r>  0.0000  0.0000  0.0016  0.0000  0.0000  0.0000  0.0000  0.0000  0.0000 </r>
       </set>
       <set comment="band 20">
        <r>  0.0103  0.0070  0.0000  0.0001  0.0000  0.0000  0.0000  0.0000  0.0000 </r>
        <r>  0.0082  0.0015  0.0000  0.0205  0.0000  0.0000  0.0000  0.0000  0.0000 </r>
       </set>
      </set>
      <set comment="kpoint 139">
       <set comment="band 1">
        <r>  0.2669  0.0000  0.0000  0.0007  0.0000  0.0000  0.0000  0.0000  0.0000 </r>
        <r>  0.5076  0.0000  0.0000  0.0002  0.0000  0.0000  0.0000  0.0000  0.0000 </r>
       </set>
       <set comment="band 2">
        <r>  0.0000  0.0000  0.1935  0.0000  0.0000  0.0000  0.0000  0.0000  0.0000 </r>
        <r>  0.0000  0.0000  0.3195  0.0000  0.0000  0.0000  0.0000  0.0000  0.0000 </r>
       </set>
       <set comment="band 3">
        <r>  0.0025  0.0031  0.0000  0.2678  0.0000  0.0000  0.0000  0.0000  0.0000 </r>
        <r>  0.0019  0.0000  0.0000  0.6245  0.0000  0.0000  0.0000  0.0000  0.0000 </r>
       </set>
       <set comment="band 4">
        <r>  0.0000  0.2705  0.0000  0.0031  0.0000  0.0000  0.0000  0.0000  0.0000 </r>
        <r>  0.0000  0.6273  0.0000  0.0000  0.0000  0.0000  0.0000  0.0000  0.0000 </r>
       </set>
       <set comment="band 5">
        <r>  0.0000  0.0000  0.0046  0.0000  0.0000  0.0000  0.0000  0.0000  0.0000 </r>
        <r>  0.0000  0.0000  0.0471  0.0000  0.0000  0.0000  0.0000  0.0000  0.0000 </r>
       </set>
       <set comment="band 6">
        <r>  0.0009  0.0000  0.0000  0.0001  0.0000  0.0000  0.0000  0.0000  0.0000 </r>
        <r>  0.0715  0.0000  0.0000  0.0009  0.0000  0.0000  0.0000  0.0000  0.0000 </r>
       </set>
       <set comment="band 7">
        <r>  0.0000  0.0000  0.0601  0.0000  0.0000  0.0000  0.0000  0.0000  0.0000 </r>
        <r>  0.0000  0.0000  0.3295  0.0000  0.0000  0.0000  0.0000  0.0000  0.0000 </r>
       </set>
       <set comment="band 8">
        <r>  0.0007  0.0046  0.0000  0.4693  0.0000  0.0000  0.0000  0.0000  0.0000 </r>
        <r>  0.0086  0.0007  0.0000  0.1003  0.0000  0.0000  0.0000  0.0000  0.0000 </r>
       </set>
       <set comment="band 9">
        <r>  0.0003  0.4747  0.0000  0.0049  0.0000  0.0000  0.0000  0.0000  0.0000 </r>
        <r>  0.0002  0.1088  0.0000  0.0005  0.0000  0.0000  0.0000  0.0000  0.0000 </r>
       </set>
       <set comment="band 10">
        <r>  0.1735  0.0008  0.0000  0.0040  0.0000  0.0000  0.0000  0.0000  0.0000 </r>
        <r>  0.2440  0.0000  0.0000  0.0091  0.0000  0.0000  0.0000  0.0000  0.0000 </r>
       </set>
       <set comment="band 11">
        <r>  0.0000  0.0000  0.3951  0.0000  0.0000  0.0000  0.0000  0.0000  0.0000 </r>
        <r>  0.0000  0.0000  0.0925  0.0000  0.0000  0.0000  0.0000  0.0000  0.0000 </r>
       </set>
       <set comment="band 12">
        <r>  0.1580  0.0000  0.0000  0.0000  0.0000  0.0000  0.0000  0.0000  0.0000 </r>
        <r>  0.0398  0.0000  0.0000  0.0014  0.0000  0.0000  0.0000  0.0000  0.0000 </r>
       </set>
       <set comment="band 13">
        <r>  0.1720  0.0000  0.0000  0.0052  0.0000  0.0000  0.0000  0.0000  0.0000 </r>
        <r>  0.0037  0.0000  0.0000  0.0011  0.0000  0.0000  0.0000  0.0000  0.0000 </r>
       </set>
       <set comment="band 14">
        <r>  0.0000  0.0000  0.1514  0.0000  0.0000  0.0000  0.0000  0.0000  0.0000 </r>
        <r>  0.0000  0.0000  0.0369  0.0000  0.0000  0.0000  0.0000  0.0000  0.0000 </r>
       </set>
       <set comment="band 15">
        <r>  0.0000  0.0000  0.0000  0.0000  0.0000  0.0000  0.0000  0.0000  0.0000 </r>
        <r>  0.0000  0.0000  0.0001  0.0000  0.0000  0.0000  0.0000  0.0000  0.0000 </r>
       </set>
       <set comment="band 16">
        <r>  0.0000  0.0000  0.0049  0.0000  0.0000  0.0000  0.0000  0.0000  0.0000 </r>
        <r>  0.0000  0.0000  0.0011  0.0000  0.0000  0.0000  0.0000  0.0000  0.0000 </r>
       </set>
       <set comment="band 17">
        <r>  0.0349  0.0000  0.0000  0.0004  0.0000  0.0000  0.0000  0.0000  0.0000 </r>
        <r>  0.0077  0.0000  0.0000  0.0000  0.0000  0.0000  0.0000  0.0000  0.0000 </r>
       </set>
       <set comment="band 18">
        <r>  0.0000  0.0000  0.0000  0.0000  0.0000  0.0000  0.0000  0.0000  0.0000 </r>
        <r>  0.0000  0.0000  0.0000  0.0000  0.0000  0.0000  0.0000  0.0000  0.0000 </r>
       </set>
       <set comment="band 19">
        <r>  0.0000  0.0000  0.0002  0.0000  0.0000  0.0000  0.0000  0.0000  0.0000 </r>
        <r>  0.0000  0.0000  0.0001  0.0000  0.0000  0.0000  0.0000  0.0000  0.0000 </r>
       </set>
       <set comment="band 20">
        <r>  0.0000  0.0000  0.0023  0.0000  0.0000  0.0000  0.0000  0.0000  0.0000 </r>
        <r>  0.0000  0.0000  0.0032  0.0000  0.0000  0.0000  0.0000  0.0000  0.0000 </r>
       </set>
      </set>
      <set comment="kpoint 140">
       <set comment="band 1">
        <r>  0.2677  0.0000  0.0000  0.0000  0.0000  0.0000  0.0000  0.0000  0.0000 </r>
        <r>  0.5074  0.0000  0.0000  0.0000  0.0000  0.0000  0.0000  0.0000  0.0000 </r>
       </set>
       <set comment="band 2">
        <r>  0.0000  0.0000  0.1938  0.0000  0.0000  0.0000  0.0000  0.0000  0.0000 </r>
        <r>  0.0000  0.0000  0.3191  0.0000  0.0000  0.0000  0.0000  0.0000  0.0000 </r>
       </set>
       <set comment="band 3">
        <r>  0.0000  0.2723  0.0000  0.0000  0.0000  0.0000  0.0000  0.0000  0.0000 </r>
        <r>  0.0000  0.6289  0.0000  0.0000  0.0000  0.0000  0.0000  0.0000  0.0000 </r>
       </set>
       <set comment="band 4">
        <r>  0.0000  0.0000  0.0000  0.2723  0.0000  0.0000  0.0000  0.0000  0.0000 </r>
        <r>  0.0000  0.0000  0.0000  0.6289  0.0000  0.0000  0.0000  0.0000  0.0000 </r>
       </set>
       <set comment="band 5">
        <r>  0.0000  0.0000  0.0047  0.0000  0.0000  0.0000  0.0000  0.0000  0.0000 </r>
        <r>  0.0000  0.0000  0.0469  0.0000  0.0000  0.0000  0.0000  0.0000  0.0000 </r>
       </set>
       <set comment="band 6">
        <r>  0.0009  0.0000  0.0000  0.0000  0.0000  0.0000  0.0000  0.0000  0.0000 </r>
        <r>  0.0724  0.0000  0.0000  0.0000  0.0000  0.0000  0.0000  0.0000  0.0000 </r>
       </set>
       <set comment="band 7">
        <r>  0.0000  0.0000  0.0572  0.0000  0.0000  0.0000  0.0000  0.0000  0.0000 </r>
        <r>  0.0000  0.0000  0.3275  0.0000  0.0000  0.0000  0.0000  0.0000  0.0000 </r>
       </set>
       <set comment="band 8">
        <r>  0.0000  0.4814  0.0000  0.0000  0.0000  0.0000  0.0000  0.0000  0.0000 </r>
        <r>  0.0000  0.1076  0.0000  0.0000  0.0000  0.0000  0.0000  0.0000  0.0000 </r>
       </set>
       <set comment="band 9">
        <r>  0.0000  0.0000  0.0000  0.4814  0.0000  0.0000  0.0000  0.0000  0.0000 </r>
        <r>  0.0000  0.0000  0.0000  0.1076  0.0000  0.0000  0.0000  0.0000  0.0000 </r>
       </set>
       <set comment="band 10">
        <r>  0.1750  0.0000  0.0000  0.0000  0.0000  0.0000  0.0000  0.0000  0.0000 </r>
        <r>  0.2543  0.0000  0.0000  0.0000  0.0000  0.0000  0.0000  0.0000  0.0000 </r>
       </set>
       <set comment="band 11">
        <r>  0.0000  0.0000  0.3981  0.0000  0.0000  0.0000  0.0000  0.0000  0.0000 </r>
        <r>  0.0000  0.0000  0.0969  0.0000  0.0000  0.0000  0.0000  0.0000  0.0000 </r>
       </set>
       <set comment="band 12">
        <r>  0.1562  0.0000  0.0000  0.0000  0.0000  0.0000  0.0000  0.0000  0.0000 </r>
        <r>  0.0401  0.0000  0.0000  0.0000  0.0000  0.0000  0.0000  0.0000  0.0000 </r>
       </set>
       <set comment="band 13">
        <r>  0.1759  0.0000  0.0000  0.0000  0.0000  0.0000  0.0000  0.0000  0.0000 </r>
        <r>  0.0038  0.0000  0.0000  0.0000  0.0000  0.0000  0.0000  0.0000  0.0000 </r>
       </set>
       <set comment="band 14">
        <r>  0.0000  0.0000  0.1558  0.0000  0.0000  0.0000  0.0000  0.0000  0.0000 </r>
        <r>  0.0000  0.0000  0.0358  0.0000  0.0000  0.0000  0.0000  0.0000  0.0000 </r>
       </set>
       <set comment="band 15">
        <r>  0.0000  0.0000  0.0000  0.0000  0.0000  0.0000  0.0000  0.0000  0.0000 </r>
        <r>  0.0000  0.0000  0.0000  0.0000  0.0000  0.0000  0.0000  0.0000  0.0000 </r>
       </set>
       <set comment="band 16">
        <r>  0.0000  0.0000  0.0000  0.0000  0.0000  0.0000  0.0000  0.0000  0.0000 </r>
        <r>  0.0000  0.0000  0.0000  0.0000  0.0000  0.0000  0.0000  0.0000  0.0000 </r>
       </set>
       <set comment="band 17">
        <r>  0.0361  0.0000  0.0000  0.0000  0.0000  0.0000  0.0000  0.0000  0.0000 </r>
        <r>  0.0076  0.0000  0.0000  0.0000  0.0000  0.0000  0.0000  0.0000  0.0000 </r>
       </set>
       <set comment="band 18">
        <r>  0.0000  0.0000  0.0000  0.0000  0.0000  0.0000  0.0000  0.0000  0.0000 </r>
        <r>  0.0000  0.0000  0.0000  0.0000  0.0000  0.0000  0.0000  0.0000  0.0000 </r>
       </set>
       <set comment="band 19">
        <r>  0.0000  0.0000  0.0000  0.0000  0.0000  0.0000  0.0000  0.0000  0.0000 </r>
        <r>  0.0000  0.0000  0.0000  0.0000  0.0000  0.0000  0.0000  0.0000  0.0000 </r>
       </set>
       <set comment="band 20">
        <r>  0.0000  0.0000  0.0021  0.0000  0.0000  0.0000  0.0000  0.0000  0.0000 </r>
        <r>  0.0000  0.0000  0.0026  0.0000  0.0000  0.0000  0.0000  0.0000  0.0000 </r>
       </set>
      </set>
     </set>
    </set>
   </array>
  </projected>
 </calculation>
 <structure name="finalpos" >
  <crystal>
   <varray name="basis" >
    <v>       1.25623732      -2.17586686       0.00000000 </v>
    <v>       1.25623732       2.17586686       0.00000000 </v>
    <v>       0.00000000       0.00000000       7.52645917 </v>
   </varray>
   <i name="volume">     41.14572454 </i>
   <varray name="rec_basis" >
    <v>       0.39801397      -0.22979347       0.00000000 </v>
    <v>       0.39801397       0.22979347       0.00000000 </v>
    <v>       0.00000000       0.00000000       0.13286460 </v>
   </varray>
  </crystal>
  <varray name="positions" >
   <v>       0.00000000       0.00000000       0.00000000 </v>
   <v>       0.33333333       0.66666667       0.00000000 </v>
  </varray>
 </structure>
</modeling>
