 running on   20 total cores
 distrk:  each k-point on   20 cores,    1 groups
 distr:  one band on    1 cores,   20 groups
 using from now: INCAR     
 vasp.5.4.4.18Apr17-6-g9f103f2a35 (build May 10 2019 17:57:18) complex          
  
 POSCAR found type information on POSCAR  B  N 
 POSCAR found :  2 types and       2 ions
 scaLAPACK will be used

 ----------------------------------------------------------------------------- 
|                                                                             |
|           W    W    AA    RRRRR   N    N  II  N    N   GGGG   !!!           |
|           W    W   A  A   R    R  NN   N  II  NN   N  G    G  !!!           |
|           W    W  A    A  R    R  N N  N  II  N N  N  G       !!!           |
|           W WW W  AAAAAA  RRRRR   N  N N  II  N  N N  G  GGG   !            |
|           WW  WW  A    A  R   R   N   NN  II  N   NN  G    G                |
|           W    W  A    A  R    R  N    N  II  N    N   GGGG   !!!           |
|                                                                             |
|      For optimal performance we recommend to set                            |
|        NCORE= 4 - approx SQRT( number of cores)                             |
|      NCORE specifies how many cores store one orbital (NPAR=cpu/NCORE).     |
|      This setting can  greatly improve the performance of VASP for DFT.     |
|      The default,   NCORE=1            might be grossly inefficient         |
|      on modern multi-core architectures or massively parallel machines.     |
|      Do your own testing !!!!                                               |
|      Unfortunately you need to use the default for GW and RPA calculations. |
|      (for HF NCORE is supported but not extensively tested yet)             |
|                                                                             |
 ----------------------------------------------------------------------------- 

 LDA part: xc-table for Pade appr. of Perdew
 POSCAR, INCAR and KPOINTS ok, starting setup
 FFT: planning ...
 WAVECAR not read
 entering main loop
       N       E                     dE             d eps       ncg     rms          rms(c)
DAV:   1     0.285028061930E+01    0.28503E+01   -0.43019E+03  1200   0.330E+02
DAV:   2    -0.193921516844E+02   -0.22242E+02   -0.22242E+02  1780   0.668E+01
DAV:   3    -0.195049735288E+02   -0.11282E+00   -0.11282E+00  1240   0.575E+00
DAV:   4    -0.195053064979E+02   -0.33297E-03   -0.33297E-03  2200   0.287E-01
DAV:   5    -0.195053065709E+02   -0.73036E-07   -0.73036E-07  1260   0.254E-03    0.796E+00
DAV:   6    -0.178860544440E+02    0.16193E+01   -0.64174E+00  1740   0.691E+00    0.376E+00
DAV:   7    -0.176898487408E+02    0.19621E+00   -0.19914E-01  1680   0.152E+00    0.217E+00
DAV:   8    -0.175994374606E+02    0.90411E-01   -0.21148E-01  1800   0.129E+00    0.289E-01
DAV:   9    -0.175966843477E+02    0.27531E-02   -0.23643E-03  1360   0.209E-01    0.118E-01
DAV:  10    -0.175955024919E+02    0.11819E-02   -0.33316E-03  1620   0.147E-01    0.100E-01
DAV:  11    -0.175974777382E+02   -0.19752E-02   -0.10193E-03  1520   0.783E-02    0.241E-02
DAV:  12    -0.175976799061E+02   -0.20217E-03   -0.26461E-05  1520   0.218E-02    0.159E-02
DAV:  13    -0.175977284156E+02   -0.48510E-04   -0.91038E-06  1360   0.978E-03
   1 F= -.17597728E+02 E0= -.17597728E+02  d E =-.256895E-22
 writing wavefunctions
 running on   20 total cores
 distrk:  each k-point on   20 cores,    1 groups
 distr:  one band on    1 cores,   20 groups
 using from now: INCAR     
 vasp.5.4.4.18Apr17-6-g9f103f2a35 (build May 10 2019 17:57:18) complex          
  
 POSCAR found type information on POSCAR  B  N 
 POSCAR found :  2 types and       2 ions
 scaLAPACK will be used

 ----------------------------------------------------------------------------- 
|                                                                             |
|           W    W    AA    RRRRR   N    N  II  N    N   GGGG   !!!           |
|           W    W   A  A   R    R  NN   N  II  NN   N  G    G  !!!           |
|           W    W  A    A  R    R  N N  N  II  N N  N  G       !!!           |
|           W WW W  AAAAAA  RRRRR   N  N N  II  N  N N  G  GGG   !            |
|           WW  WW  A    A  R   R   N   NN  II  N   NN  G    G                |
|           W    W  A    A  R    R  N    N  II  N    N   GGGG   !!!           |
|                                                                             |
|      For optimal performance we recommend to set                            |
|        NCORE= 4 - approx SQRT( number of cores)                             |
|      NCORE specifies how many cores store one orbital (NPAR=cpu/NCORE).     |
|      This setting can  greatly improve the performance of VASP for DFT.     |
|      The default,   NCORE=1            might be grossly inefficient         |
|      on modern multi-core architectures or massively parallel machines.     |
|      Do your own testing !!!!                                               |
|      Unfortunately you need to use the default for GW and RPA calculations. |
|      (for HF NCORE is supported but not extensively tested yet)             |
|                                                                             |
 ----------------------------------------------------------------------------- 

 LDA part: xc-table for Pade appr. of Perdew
 found WAVECAR, reading the header
  number of k-points has changed, file:    30 present:   140
  trying to continue reading WAVECAR, but it might fail
 WARNING: stress and forces are not correct
 POSCAR, INCAR and KPOINTS ok, starting setup
 FFT: planning ...
 reading WAVECAR
 the WAVECAR file was read successfully
 charge-density read from file: BiFeO3                                  
 entering main loop
       N       E                     dE             d eps       ncg     rms          rms(c)
DAV:   1    -0.159833390105E+02   -0.15983E+02   -0.24383E+02  6520   0.365E+01
DAV:   2    -0.161020166607E+02   -0.11868E+00   -0.11868E+00  7880   0.482E+00
DAV:   3    -0.161020584190E+02   -0.41758E-04   -0.41758E-04  8340   0.814E-02
   1 F= -.16102058E+02 E0= -.16102058E+02  d E =-.837773E-12
 writing wavefunctions
