 vasp.5.4.4.18Apr17-6-g9f103f2a35 (build May 10 2019 17:57:18) complex          
  
 executed on             LinuxIFC date 2024.07.15  13:12:46
 running on   20 total cores
 distrk:  each k-point on   20 cores,    1 groups
 distr:  one band on NCORES_PER_BAND=   1 cores,   20 groups


--------------------------------------------------------------------------------------------------------


 INCAR:
 POTCAR:    PAW_PBE B 06Sep2000                   
 POTCAR:    PAW_PBE N 08Apr2002                   

 ----------------------------------------------------------------------------- 
|                                                                             |
|           W    W    AA    RRRRR   N    N  II  N    N   GGGG   !!!           |
|           W    W   A  A   R    R  NN   N  II  NN   N  G    G  !!!           |
|           W    W  A    A  R    R  N N  N  II  N N  N  G       !!!           |
|           W WW W  AAAAAA  RRRRR   N  N N  II  N  N N  G  GGG   !            |
|           WW  WW  A    A  R   R   N   NN  II  N   NN  G    G                |
|           W    W  A    A  R    R  N    N  II  N    N   GGGG   !!!           |
|                                                                             |
|      For optimal performance we recommend to set                            |
|        NCORE= 4 - approx SQRT( number of cores)                             |
|      NCORE specifies how many cores store one orbital (NPAR=cpu/NCORE).     |
|      This setting can  greatly improve the performance of VASP for DFT.     |
|      The default,   NCORE=1            might be grossly inefficient         |
|      on modern multi-core architectures or massively parallel machines.     |
|      Do your own testing !!!!                                               |
|      Unfortunately you need to use the default for GW and RPA calculations. |
|      (for HF NCORE is supported but not extensively tested yet)             |
|                                                                             |
 ----------------------------------------------------------------------------- 

 POTCAR:    PAW_PBE B 06Sep2000                   
   SHA256 =  a32ced30f5ae56fd4d10b4325ff17eb3e4e38ee0f4288bc219fb012fddfa6e97 B/
   COPYR  = (c) Copyright 06Sep2000 Georg Kresse                                
   COPYR  = This file is part of the software VASP. Any use, copying, and all ot
   COPYR  = If you do not have a valid VASP license, you may not use, copy or di
   VRHFIN =B: s2p1                                                              
   LEXCH  = PE                                                                  
   EATOM  =    71.1703 eV,    5.2309 Ry                                         
                                                                                
   TITEL  = PAW_PBE B 06Sep2000                                                 
   LULTRA =        F    use ultrasoft PP ?                                      
   IUNSCR =        1    unscreen: 0-lin 1-nonlin 2-no                           
   RPACOR =    1.200    partial core radius                                     
   POMASS =   10.811; ZVAL   =    3.000    mass and valenz                      
   RCORE  =    1.700    outmost cutoff radius                                   
   RWIGS  =    1.710; RWIGS  =    0.905    wigner-seitz radius (au A)           
   ENMAX  =  318.614; ENMIN  =  238.960 eV                                      
   ICORE  =        2    local potential                                         
   LCOR   =        T    correct aug charges                                     
   LPAW   =        T    paw PP                                                  
   EAUG   =  535.514                                                            
   DEXC   =    0.000                                                            
   RMAX   =    1.732    core radius for proj-oper                               
   RAUG   =    1.300    factor for augmentation sphere                          
   RDEP   =    1.757    radius for radial grids                                 
   RDEPT  =    1.436    core radius for aug-charge                              
                                                                                
   Atomic configuration                                                         
    4 entries                                                                   
     n  l   j            E        occ.                                          
     1  0  0.50      -180.5896   2.0000                                         
     2  0  0.50        -9.4431   2.0000                                         
     2  1  0.50        -3.6068   1.0000                                         
     3  2  1.50        -4.0817   0.0000                                         
   Description                                                                  
     l       E           TYP  RCUT    TYP  RCUT                                 
     0     -9.4430752     23  1.500                                             
     0      0.8675899     23  1.500                                             
     1     -3.6067955     23  1.700                                             
     1      6.1086146     23  1.700                                             
     2     -4.0817478      7  1.700                                             
  local pseudopotential read in
  partial core-charges read in
  partial kinetic energy density read in
  atomic valenz-charges read in
  non local Contribution for L=           0  read in
    real space projection operators read in
  non local Contribution for L=           0  read in
    real space projection operators read in
  non local Contribution for L=           1  read in
    real space projection operators read in
  non local Contribution for L=           1  read in
    real space projection operators read in
    PAW grid and wavefunctions read in
 
   number of l-projection  operators is LMAX  =           4
   number of lm-projection operators is LMMAX =           8
 
 POTCAR:    PAW_PBE N 08Apr2002                   
   SHA256 =  e053789ff3a61a86a1b75d8a110fcc91f86041011e7b0817c7c99e4e8a6349d7 N/
   COPYR  = (c) Copyright 08Apr2002 Georg Kresse                                
   COPYR  = This file is part of the software VASP. Any use, copying, and all ot
   COPYR  = If you do not have a valid VASP license, you may not use, copy or di
   VRHFIN =N: s2p3                                                              
   LEXCH  = PE                                                                  
   EATOM  =   264.5486 eV,   19.4438 Ry                                         
                                                                                
   TITEL  = PAW_PBE N 08Apr2002                                                 
   LULTRA =        F    use ultrasoft PP ?                                      
   IUNSCR =        1    unscreen: 0-lin 1-nonlin 2-no                           
   RPACOR =    1.200    partial core radius                                     
   POMASS =   14.001; ZVAL   =    5.000    mass and valenz                      
   RCORE  =    1.500    outmost cutoff radius                                   
   RWIGS  =    1.400; RWIGS  =    0.741    wigner-seitz radius (au A)           
   ENMAX  =  400.000; ENMIN  =  300.000 eV                                      
   ICORE  =        2    local potential                                         
   LCOR   =        T    correct aug charges                                     
   LPAW   =        T    paw PP                                                  
   EAUG   =  627.112                                                            
   DEXC   =    0.000                                                            
   RMAX   =    1.529    core radius for proj-oper                               
   RAUG   =    1.300    factor for augmentation sphere                          
   RDEP   =    1.514    radius for radial grids                                 
   RDEPT  =    1.338    core radius for aug-charge                              
                                                                                
   Atomic configuration                                                         
    4 entries                                                                   
     n  l   j            E        occ.                                          
     1  0  0.50      -384.7179   2.0000                                         
     2  0  0.50       -18.5828   2.0000                                         
     2  1  0.50        -7.0898   3.0000                                         
     3  2  1.50        -6.8029   0.0000                                         
   Description                                                                  
     l       E           TYP  RCUT    TYP  RCUT                                 
     0    -18.5828119     23  1.200                                             
     0    -13.5018863     23  1.200                                             
     1     -7.0897853     23  1.500                                             
     1      9.5240782     23  1.500                                             
     2     -6.8029130      7  1.500                                             
  local pseudopotential read in
  partial core-charges read in
  partial kinetic energy density read in
  atomic valenz-charges read in
  non local Contribution for L=           0  read in
    real space projection operators read in
  non local Contribution for L=           0  read in
    real space projection operators read in
  non local Contribution for L=           1  read in
    real space projection operators read in
  non local Contribution for L=           1  read in
    real space projection operators read in
    PAW grid and wavefunctions read in
 
   number of l-projection  operators is LMAX  =           4
   number of lm-projection operators is LMMAX =           8
 
  PAW_PBE B 06Sep2000                   :
 energy of atom  1       EATOM=  -71.1703
 kinetic energy error for atom=    0.1347 (will be added to EATOM!!)
  PAW_PBE N 08Apr2002                   :
 energy of atom  2       EATOM= -264.5486
 kinetic energy error for atom=    4.4504 (will be added to EATOM!!)
 
 
 POSCAR: B2 N2                                   
  positions in direct lattice
  velocities in cartesian coordinates
 exchange correlation table for  LEXCH =        8
   RHO(1)=    0.500       N(1)  =     2000
   RHO(2)=  100.500       N(2)  =     4000
 


--------------------------------------------------------------------------------------------------------


 ion  position               nearest neighbor table
   1  0.000  0.000  0.000-   3 1.45   3 1.45   3 1.45
   2  0.333  0.667  0.500-   4 1.45   4 1.45   4 1.45
   3  0.333  0.667  0.000-   1 1.45   1 1.45   1 1.45
   4  0.667  0.333  0.500-   2 1.45   2 1.45   2 1.45
 
  LATTYP: Found a hexagonal cell.
 ALAT       =     2.5124746362
 C/A-ratio  =     2.9956358826
  
  Lattice vectors:
  
 A1 = (   1.2562373181,  -2.1758668613,   0.0000000000)
 A2 = (   1.2562373181,   2.1758668613,   0.0000000000)
 A3 = (   0.0000000000,   0.0000000000,   7.5264591742)


Analysis of symmetry for initial positions (statically):
=====================================================================
 Subroutine PRICEL returns:
 Original cell was already a primitive cell.
 

 Routine SETGRP: Setting up the symmetry group for a 
 hexagonal supercell.


 Subroutine GETGRP returns: Found 12 space group operations
 (whereof 12 operations were pure point group operations)
 out of a pool of 24 trial point group operations.


The static configuration has the point symmetry D_3h.


Analysis of symmetry for dynamics (positions and initial velocities):
=====================================================================
 Subroutine PRICEL returns:
 Original cell was already a primitive cell.
 

 Routine SETGRP: Setting up the symmetry group for a 
 hexagonal supercell.


 Subroutine GETGRP returns: Found 12 space group operations
 (whereof 12 operations were pure point group operations)
 out of a pool of 24 trial point group operations.


The dynamic configuration has the point symmetry D_3h.


 Subroutine INISYM returns: Found 12 space group operations
 (whereof 12 operations are pure point group operations),
 and found     1 'primitive' translations

 
 
 KPOINTS: A                                       

Automatic generation of k-mesh.
Space group operators:
 irot       det(A)        alpha          n_x          n_y          n_z        tau_x        tau_y        tau_z
    1     1.000000     0.000000     1.000000     0.000000     0.000000     0.000000     0.000000     0.000000
    2    -1.000000    60.000000     0.000000     0.000000    -1.000000     0.000000     0.000000     0.000000
    3     1.000000   120.000000     0.000000     0.000000    -1.000000     0.000000     0.000000     0.000000
    4    -1.000000   180.000000     0.000000     0.000000     1.000000     0.000000     0.000000     0.000000
    5     1.000000   120.000000     0.000000     0.000000     1.000000     0.000000     0.000000     0.000000
    6    -1.000000    60.000000     0.000000     0.000000     1.000000     0.000000     0.000000     0.000000
    7    -1.000000   180.000000     0.500000    -0.866025     0.000000     0.000000     0.000000     0.000000
    8     1.000000   180.000000     0.000000     1.000000     0.000000     0.000000     0.000000     0.000000
    9    -1.000000   180.000000    -0.500000    -0.866025     0.000000     0.000000     0.000000     0.000000
   10     1.000000   180.000000     0.866025     0.500000     0.000000     0.000000     0.000000     0.000000
   11    -1.000000   180.000000     1.000000     0.000000     0.000000     0.000000     0.000000     0.000000
   12     1.000000   180.000000     0.866025    -0.500000     0.000000     0.000000     0.000000     0.000000
 
 Subroutine IBZKPT returns following result:
 ===========================================
 
 Found     28 irreducible k-points:
 
 Following reciprocal coordinates:
            Coordinates               Weight
  0.000000  0.000000  0.000000      1.000000
  0.100000  0.000000  0.000000      6.000000
  0.200000  0.000000  0.000000      6.000000
  0.300000  0.000000  0.000000      6.000000
  0.400000  0.000000  0.000000      6.000000
  0.500000  0.000000  0.000000      3.000000
  0.100000  0.100000  0.000000      6.000000
  0.200000  0.100000  0.000000     12.000000
  0.300000  0.100000  0.000000     12.000000
  0.400000  0.100000  0.000000     12.000000
  0.200000  0.200000  0.000000      6.000000
  0.300000  0.200000  0.000000     12.000000
  0.400000  0.200000  0.000000      6.000000
  0.300000  0.300000  0.000000      6.000000
  0.000000  0.000000  0.333333      2.000000
  0.100000  0.000000  0.333333     12.000000
  0.200000  0.000000  0.333333     12.000000
  0.300000  0.000000  0.333333     12.000000
  0.400000  0.000000  0.333333     12.000000
  0.500000  0.000000  0.333333      6.000000
  0.100000  0.100000  0.333333     12.000000
  0.200000  0.100000  0.333333     24.000000
  0.300000  0.100000  0.333333     24.000000
  0.400000  0.100000  0.333333     24.000000
  0.200000  0.200000  0.333333     12.000000
  0.300000  0.200000  0.333333     24.000000
  0.400000  0.200000  0.333333     12.000000
  0.300000  0.300000  0.333333     12.000000
 
 Following cartesian coordinates:
            Coordinates               Weight
  0.000000  0.000000  0.000000      1.000000
  0.039801 -0.022979  0.000000      6.000000
  0.079603 -0.045959  0.000000      6.000000
  0.119404 -0.068938  0.000000      6.000000
  0.159206 -0.091917  0.000000      6.000000
  0.199007 -0.114897  0.000000      3.000000
  0.079603  0.000000  0.000000      6.000000
  0.119404 -0.022979  0.000000     12.000000
  0.159206 -0.045959  0.000000     12.000000
  0.199007 -0.068938  0.000000     12.000000
  0.159206  0.000000  0.000000      6.000000
  0.199007 -0.022979  0.000000     12.000000
  0.238808 -0.045959  0.000000      6.000000
  0.238808  0.000000  0.000000      6.000000
  0.000000  0.000000  0.044288      2.000000
  0.039801 -0.022979  0.044288     12.000000
  0.079603 -0.045959  0.044288     12.000000
  0.119404 -0.068938  0.044288     12.000000
  0.159206 -0.091917  0.044288     12.000000
  0.199007 -0.114897  0.044288      6.000000
  0.079603  0.000000  0.044288     12.000000
  0.119404 -0.022979  0.044288     24.000000
  0.159206 -0.045959  0.044288     24.000000
  0.199007 -0.068938  0.044288     24.000000
  0.159206  0.000000  0.044288     12.000000
  0.199007 -0.022979  0.044288     24.000000
  0.238808 -0.045959  0.044288     12.000000
  0.238808  0.000000  0.044288     12.000000
 


--------------------------------------------------------------------------------------------------------




 Dimension of arrays:
   k-points           NKPTS =     28   k-points in BZ     NKDIM =     28   number of bands    NBANDS=     20
   number of dos      NEDOS =    301   number of ions     NIONS =      4
   non local maximal  LDIM  =      4   non local SUM 2l+1 LMDIM =      8
   total plane-waves  NPLWV =   2800
   max r-space proj   IRMAX =      1   max aug-charges    IRDMAX=   8688
   dimension x,y,z NGX =    10 NGY =   10 NGZ =   28
   dimension x,y,z NGXF=    20 NGYF=   20 NGZF=   56
   support grid    NGXF=    40 NGYF=   40 NGZF=  112
   ions per type =               2   2
   NGX,Y,Z   is equivalent  to a cutoff of   6.62,  6.62,  6.18 a.u.
   NGXF,Y,Z  is equivalent  to a cutoff of  13.23, 13.23, 12.37 a.u.

 SYSTEM =  BN                                      
 POSCAR =  B2 N2                                   

 Startparameter for this run:
   NWRITE =      2    write-flag & timer
   PREC   = normal    normal or accurate (medium, high low for compatibility)
   ISTART =      0    job   : 0-new  1-cont  2-samecut
   ICHARG =      2    charge: 1-file 2-atom 10-const
   ISPIN  =      1    spin polarized calculation?
   LNONCOLLINEAR =      F non collinear calculations
   LSORBIT =      F    spin-orbit coupling
   INIWAV =      1    electr: 0-lowe 1-rand  2-diag
   LASPH  =      F    aspherical Exc in radial PAW
   METAGGA=      F    non-selfconsistent MetaGGA calc.

 Electronic Relaxation 1
   ENCUT  =  200.0 eV  14.70 Ry    3.83 a.u.   2.90  2.90  8.68*2*pi/ulx,y,z
   ENINI  =  200.0     initial cutoff
   ENAUG  =  627.1 eV  augmentation charge cutoff
   NELM   =     60;   NELMIN=  2; NELMDL=  0     # of ELM steps 
   EDIFF  = 0.1E-03   stopping-criterion for ELM
   LREAL  =      F    real-space projection
   NLSPLINE    = F    spline interpolate recip. space projectors
   LCOMPAT=      F    compatible to vasp.4.4
   GGA_COMPAT  = T    GGA compatible to vasp.4.4-vasp.4.6
   LMAXPAW     = -100 max onsite density
   LMAXMIX     =    2 max onsite mixed and CHGCAR
   VOSKOWN=      0    Vosko Wilk Nusair interpolation
   ROPT   =    0.00000   0.00000
 Ionic relaxation
   EDIFFG = 0.1E-02   stopping-criterion for IOM
   NSW    =      0    number of steps for IOM
   NBLOCK =      1;   KBLOCK =      1    inner block; outer block 
   IBRION =     -1    ionic relax: 0-MD 1-quasi-New 2-CG
   NFREE  =      0    steps in history (QN), initial steepest desc. (CG)
   ISIF   =      2    stress and relaxation
   IWAVPR =     10    prediction:  0-non 1-charg 2-wave 3-comb
   ISYM   =      2    0-nonsym 1-usesym 2-fastsym
   LCORR  =      T    Harris-Foulkes like correction to forces

   POTIM  = 0.5000    time-step for ionic-motion
   TEIN   =    0.0    initial temperature
   TEBEG  =    0.0;   TEEND  =   0.0 temperature during run
   SMASS  =  -3.00    Nose mass-parameter (am)
   estimated Nose-frequenzy (Omega)   =  0.10E-29 period in steps =****** mass=  -0.144E-27a.u.
   SCALEE = 1.0000    scale energy and forces
   NPACO  =    256;   APACO  = 16.0  distance and # of slots for P.C.
   PSTRESS=    0.0 pullay stress

  Mass of Ions in am
   POMASS =  10.81 14.00
  Ionic Valenz
   ZVAL   =   3.00  5.00
  Atomic Wigner-Seitz radii
   RWIGS  =  -1.00 -1.00
  virtual crystal weights 
   VCA    =   1.00  1.00
   NELECT =      16.0000    total number of electrons
   NUPDOWN=      -1.0000    fix difference up-down

 DOS related values:
   EMIN   =  10.00;   EMAX   =-10.00  energy-range for DOS
   EFERMI =   0.00
   ISMEAR =     0;   SIGMA  =   0.05  broadening in eV -4-tet -1-fermi 0-gaus

 Electronic relaxation 2 (details)
   IALGO  =     38    algorithm
   LDIAG  =      T    sub-space diagonalisation (order eigenvalues)
   LSUBROT=      F    optimize rotation matrix (better conditioning)
   TURBO    =      0    0=normal 1=particle mesh
   IRESTART =      0    0=no restart 2=restart with 2 vectors
   NREBOOT  =      0    no. of reboots
   NMIN     =      0    reboot dimension
   EREF     =   0.00    reference energy to select bands
   IMIX   =      4    mixing-type and parameters
     AMIX     =   0.40;   BMIX     =  1.00
     AMIX_MAG =   1.60;   BMIX_MAG =  1.00
     AMIN     =   0.10
     WC   =   100.;   INIMIX=   1;  MIXPRE=   1;  MAXMIX= -45

 Intra band minimization:
   WEIMIN = 0.0000     energy-eigenvalue tresh-hold
   EBREAK =  0.13E-05  absolut break condition
   DEPER  =   0.30     relativ break condition  

   TIME   =   0.40     timestep for ELM

  volume/ion in A,a.u.               =      10.29        69.42
  Fermi-wavevector in a.u.,A,eV,Ry     =   1.194923  2.258077 19.426956  1.427841
  Thomas-Fermi vector in A             =   2.330901
 
 Write flags
   LWAVE        =      T    write WAVECAR
   LDOWNSAMPLE  =      F    k-point downsampling of WAVECAR
   LCHARG       =      T    write CHGCAR
   LVTOT        =      F    write LOCPOT, total local potential
   LVHAR        =      F    write LOCPOT, Hartree potential only
   LELF         =      F    write electronic localiz. function (ELF)
   LORBIT       =     11    0 simple, 1 ext, 2 COOP (PROOUT), +10 PAW based schemes


 Dipole corrections
   LMONO  =      F    monopole corrections only (constant potential shift)
   LDIPOL =      F    correct potential (dipole corrections)
   IDIPOL =      0    1-x, 2-y, 3-z, 4-all directions 
   EPSILON=  1.0000000 bulk dielectric constant

 Exchange correlation treatment:
   GGA     =    --    GGA type
   LEXCH   =     8    internal setting for exchange type
   VOSKOWN=      0    Vosko Wilk Nusair interpolation
   LHFCALC =     F    Hartree Fock is set to
   LHFONE  =     F    Hartree Fock one center treatment
   AEXX    =    0.0000 exact exchange contribution

 Linear response parameters
   LEPSILON=     F    determine dielectric tensor
   LRPA    =     F    only Hartree local field effects (RPA)
   LNABLA  =     F    use nabla operator in PAW spheres
   LVEL    =     F    velocity operator in full k-point grid
   LINTERFAST=   F  fast interpolation
   KINTER  =     0    interpolate to denser k-point grid
   CSHIFT  =0.1000    complex shift for real part using Kramers Kronig
   OMEGAMAX=  -1.0    maximum frequency
   DEG_THRESHOLD= 0.2000000E-02 threshold for treating states as degnerate
   RTIME   =   -0.100 relaxation time in fs
  (WPLASMAI=    0.000 imaginary part of plasma frequency in eV, 0.658/RTIME)
   DFIELD  = 0.0000000 0.0000000 0.0000000 field for delta impulse in time
 
 Orbital magnetization related:
   ORBITALMAG=     F  switch on orbital magnetization
   LCHIMAG   =     F  perturbation theory with respect to B field
   DQ        =  0.001000  dq finite difference perturbation B field
   LLRAUG    =     F  two centre corrections for induced B field



--------------------------------------------------------------------------------------------------------


 Static calculation
 charge density and potential will be updated during run
 non-spin polarized calculation
 Variant of blocked Davidson
 Davidson routine will perform the subspace rotation
 perform sub-space diagonalisation
    after iterative eigenvector-optimisation
 modified Broyden-mixing scheme, WC =      100.0
 initial mixing is a Kerker type mixing with AMIX =  0.4000 and BMIX =      1.0000
 Hartree-type preconditioning will be used
 using additional bands           12
 reciprocal scheme for non local part
 use partial core corrections
 calculate Harris-corrections to forces 
   (improved forces if not selfconsistent)
 use gradient corrections 
 use of overlap-Matrix (Vanderbilt PP)
 Gauss-broadening in eV      SIGMA  =   0.05


--------------------------------------------------------------------------------------------------------


  energy-cutoff  :      200.00
  volume of cell :       41.15
      direct lattice vectors                 reciprocal lattice vectors
     1.256237318 -2.175866861  0.000000000     0.398013968 -0.229793472  0.000000000
     1.256237318  2.175866861  0.000000000     0.398013968  0.229793472  0.000000000
     0.000000000  0.000000000  7.526459174     0.000000000  0.000000000  0.132864602

  length of vectors
     2.512474636  2.512474636  7.526459174     0.459586943  0.459586943  0.132864602


 
 k-points in units of 2pi/SCALE and weight: A                                       
   0.00000000  0.00000000  0.00000000       0.003
   0.03980140 -0.02297935  0.00000000       0.020
   0.07960279 -0.04595869  0.00000000       0.020
   0.11940419 -0.06893804  0.00000000       0.020
   0.15920559 -0.09191739  0.00000000       0.020
   0.19900698 -0.11489674  0.00000000       0.010
   0.07960279  0.00000000  0.00000000       0.020
   0.11940419 -0.02297935  0.00000000       0.040
   0.15920559 -0.04595869  0.00000000       0.040
   0.19900698 -0.06893804  0.00000000       0.040
   0.15920559  0.00000000  0.00000000       0.020
   0.19900698 -0.02297935  0.00000000       0.040
   0.23880838 -0.04595869  0.00000000       0.020
   0.23880838  0.00000000  0.00000000       0.020
   0.00000000  0.00000000  0.04428820       0.007
   0.03980140 -0.02297935  0.04428820       0.040
   0.07960279 -0.04595869  0.04428820       0.040
   0.11940419 -0.06893804  0.04428820       0.040
   0.15920559 -0.09191739  0.04428820       0.040
   0.19900698 -0.11489674  0.04428820       0.020
   0.07960279  0.00000000  0.04428820       0.040
   0.11940419 -0.02297935  0.04428820       0.080
   0.15920559 -0.04595869  0.04428820       0.080
   0.19900698 -0.06893804  0.04428820       0.080
   0.15920559  0.00000000  0.04428820       0.040
   0.19900698 -0.02297935  0.04428820       0.080
   0.23880838 -0.04595869  0.04428820       0.040
   0.23880838  0.00000000  0.04428820       0.040
 
 k-points in reciprocal lattice and weights: A                                       
   0.00000000  0.00000000  0.00000000       0.003
   0.10000000  0.00000000  0.00000000       0.020
   0.20000000  0.00000000  0.00000000       0.020
   0.30000000  0.00000000  0.00000000       0.020
   0.40000000  0.00000000  0.00000000       0.020
   0.50000000  0.00000000  0.00000000       0.010
   0.10000000  0.10000000  0.00000000       0.020
   0.20000000  0.10000000  0.00000000       0.040
   0.30000000  0.10000000  0.00000000       0.040
   0.40000000  0.10000000  0.00000000       0.040
   0.20000000  0.20000000  0.00000000       0.020
   0.30000000  0.20000000  0.00000000       0.040
   0.40000000  0.20000000  0.00000000       0.020
   0.30000000  0.30000000  0.00000000       0.020
   0.00000000  0.00000000  0.33333333       0.007
   0.10000000  0.00000000  0.33333333       0.040
   0.20000000  0.00000000  0.33333333       0.040
   0.30000000  0.00000000  0.33333333       0.040
   0.40000000  0.00000000  0.33333333       0.040
   0.50000000  0.00000000  0.33333333       0.020
   0.10000000  0.10000000  0.33333333       0.040
   0.20000000  0.10000000  0.33333333       0.080
   0.30000000  0.10000000  0.33333333       0.080
   0.40000000  0.10000000  0.33333333       0.080
   0.20000000  0.20000000  0.33333333       0.040
   0.30000000  0.20000000  0.33333333       0.080
   0.40000000  0.20000000  0.33333333       0.040
   0.30000000  0.30000000  0.33333333       0.040
 
 position of ions in fractional coordinates (direct lattice) 
   0.00000000  0.00000000  0.00000000
   0.33333333  0.66666667  0.50000000
   0.33333333  0.66666667  0.00000000
   0.66666667  0.33333333  0.50000000
 
 position of ions in cartesian coordinates  (Angst):
   0.00000000  0.00000000  0.00000000
   1.25623732  0.72528895  3.76322959
   1.25623732  0.72528895  0.00000000
   1.25623732 -0.72528895  3.76322959
 


--------------------------------------------------------------------------------------------------------


 k-point  1 :   0.0000 0.0000 0.0000  plane waves:     251
 k-point  2 :   0.1000 0.0000 0.0000  plane waves:     247
 k-point  3 :   0.2000 0.0000 0.0000  plane waves:     257
 k-point  4 :   0.3000 0.0000 0.0000  plane waves:     271
 k-point  5 :   0.4000 0.0000 0.0000  plane waves:     265
 k-point  6 :   0.5000 0.0000 0.0000  plane waves:     272
 k-point  7 :   0.1000 0.1000 0.0000  plane waves:     251
 k-point  8 :   0.2000 0.1000 0.0000  plane waves:     260
 k-point  9 :   0.3000 0.1000 0.0000  plane waves:     269
 k-point 10 :   0.4000 0.1000 0.0000  plane waves:     269
 k-point 11 :   0.2000 0.2000 0.0000  plane waves:     269
 k-point 12 :   0.3000 0.2000 0.0000  plane waves:     270
 k-point 13 :   0.4000 0.2000 0.0000  plane waves:     267
 k-point 14 :   0.3000 0.3000 0.0000  plane waves:     263
 k-point 15 :   0.0000 0.0000 0.3333  plane waves:     246
 k-point 16 :   0.1000 0.0000 0.3333  plane waves:     252
 k-point 17 :   0.2000 0.0000 0.3333  plane waves:     260
 k-point 18 :   0.3000 0.0000 0.3333  plane waves:     265
 k-point 19 :   0.4000 0.0000 0.3333  plane waves:     269
 k-point 20 :   0.5000 0.0000 0.3333  plane waves:     266
 k-point 21 :   0.1000 0.1000 0.3333  plane waves:     256
 k-point 22 :   0.2000 0.1000 0.3333  plane waves:     261
 k-point 23 :   0.3000 0.1000 0.3333  plane waves:     266
 k-point 24 :   0.4000 0.1000 0.3333  plane waves:     267
 k-point 25 :   0.2000 0.2000 0.3333  plane waves:     267
 k-point 26 :   0.3000 0.2000 0.3333  plane waves:     268
 k-point 27 :   0.4000 0.2000 0.3333  plane waves:     267
 k-point 28 :   0.3000 0.3000 0.3333  plane waves:     266

 maximum and minimum number of plane-waves per node :       272      246

 maximum number of plane-waves:       272
 maximum index in each direction: 
   IXMAX=    2   IYMAX=    2   IZMAX=    8
   IXMIN=   -3   IYMIN=   -3   IZMIN=   -9


 serial   3D FFT for wavefunctions
 parallel 3D FFT for charge:
    minimum data exchange during FFTs selected (reduces bandwidth)


 total amount of memory used by VASP MPI-rank0    31532. kBytes
=======================================================================

   base      :      30000. kBytes
   nonl-proj :       1021. kBytes
   fftplans  :        179. kBytes
   grid      :        177. kBytes
   one-center:         12. kBytes
   wavefun   :        143. kBytes
 
     INWAV:  cpu time    0.0000: real time    0.0002
 Broyden mixing: mesh for mixing (old mesh)
   NGX =  5   NGY =  5   NGZ = 17
  (NGX  = 20   NGY  = 20   NGZ  = 56)
  gives a total of    425 points

 initial charge density was supplied:
 charge density of overlapping atoms calculated
 number of electron      16.0000000 magnetization 
 keeping initial charge density in first step


--------------------------------------------------------------------------------------------------------


 Maximum index for augmentation-charges          439 (set IRDMAX)


--------------------------------------------------------------------------------------------------------


 First call to EWALD:  gamma=   0.513
 Maximum number of real-space cells 4x 4x 2
 Maximum number of reciprocal cells 2x 2x 5

    FEWALD:  cpu time    0.0016: real time    0.0016


--------------------------------------- Iteration      1(   1)  ---------------------------------------


    POTLOK:  cpu time    0.0027: real time    0.0039
    SETDIJ:  cpu time    0.0014: real time    0.0015
     EDDAV:  cpu time    0.1100: real time    0.1108
       DOS:  cpu time    0.0005: real time    0.0138
    --------------------------------------------
      LOOP:  cpu time    0.1147: real time    0.1304

 eigenvalue-minimisations  :  1380
 total energy-change (2. order) :-0.2518493E+02  (-0.5855894E+03)
 number of electron      16.0000000 magnetization 
 augmentation part       16.0000000 magnetization 

 Free energy of the ion-electron system (eV)
  ---------------------------------------------------
  alpha Z        PSCENC =        34.59384069
  Ewald energy   TEWEN  =      -421.88703305
  -Hartree energ DENC   =      -233.95495412
  -exchange      EXHF   =         0.00000000
  -V(xc)+E(xc)   XCENC  =        53.96756298
  PAW double counting   =       496.86519423     -497.53652252
  entropy T*S    EENTRO =        -0.00000000
  eigenvalues    EBANDS =      -119.50051162
  atomic energy  EATOM  =       662.26749562
  Solvation  Ediel_sol  =         0.00000000
  ---------------------------------------------------
  free energy    TOTEN  =       -25.18492777 eV

  energy without entropy =      -25.18492777  energy(sigma->0) =      -25.18492777


--------------------------------------------------------------------------------------------------------




--------------------------------------- Iteration      1(   2)  ---------------------------------------


     EDDAV:  cpu time    0.2097: real time    0.2138
       DOS:  cpu time    0.0002: real time    0.0002
    --------------------------------------------
      LOOP:  cpu time    0.2099: real time    0.2136

 eigenvalue-minimisations  :  1940
 total energy-change (2. order) :-0.1018127E+02  (-0.1018127E+02)
 number of electron      16.0000000 magnetization 
 augmentation part       16.0000000 magnetization 

 Free energy of the ion-electron system (eV)
  ---------------------------------------------------
  alpha Z        PSCENC =        34.59384069
  Ewald energy   TEWEN  =      -421.88703305
  -Hartree energ DENC   =      -233.95495412
  -exchange      EXHF   =         0.00000000
  -V(xc)+E(xc)   XCENC  =        53.96756298
  PAW double counting   =       496.86519423     -497.53652252
  entropy T*S    EENTRO =        -0.00000000
  eigenvalues    EBANDS =      -129.68178301
  atomic energy  EATOM  =       662.26749562
  Solvation  Ediel_sol  =         0.00000000
  ---------------------------------------------------
  free energy    TOTEN  =       -35.36619916 eV

  energy without entropy =      -35.36619916  energy(sigma->0) =      -35.36619916


--------------------------------------------------------------------------------------------------------




--------------------------------------- Iteration      1(   3)  ---------------------------------------


     EDDAV:  cpu time    0.0849: real time    0.0857
       DOS:  cpu time    0.0002: real time    0.0002
    --------------------------------------------
      LOOP:  cpu time    0.0851: real time    0.0859

 eigenvalue-minimisations  :  1200
 total energy-change (2. order) :-0.1667976E-01  (-0.1667976E-01)
 number of electron      16.0000000 magnetization 
 augmentation part       16.0000000 magnetization 

 Free energy of the ion-electron system (eV)
  ---------------------------------------------------
  alpha Z        PSCENC =        34.59384069
  Ewald energy   TEWEN  =      -421.88703305
  -Hartree energ DENC   =      -233.95495412
  -exchange      EXHF   =         0.00000000
  -V(xc)+E(xc)   XCENC  =        53.96756298
  PAW double counting   =       496.86519423     -497.53652252
  entropy T*S    EENTRO =        -0.00000000
  eigenvalues    EBANDS =      -129.69846276
  atomic energy  EATOM  =       662.26749562
  Solvation  Ediel_sol  =         0.00000000
  ---------------------------------------------------
  free energy    TOTEN  =       -35.38287892 eV

  energy without entropy =      -35.38287892  energy(sigma->0) =      -35.38287892


--------------------------------------------------------------------------------------------------------




--------------------------------------- Iteration      1(   4)  ---------------------------------------


     EDDAV:  cpu time    0.2079: real time    0.2093
       DOS:  cpu time    0.0002: real time    0.0002
    --------------------------------------------
      LOOP:  cpu time    0.2081: real time    0.2095

 eigenvalue-minimisations  :  1940
 total energy-change (2. order) :-0.1523336E-04  (-0.1523336E-04)
 number of electron      16.0000000 magnetization 
 augmentation part       16.0000000 magnetization 

 Free energy of the ion-electron system (eV)
  ---------------------------------------------------
  alpha Z        PSCENC =        34.59384069
  Ewald energy   TEWEN  =      -421.88703305
  -Hartree energ DENC   =      -233.95495412
  -exchange      EXHF   =         0.00000000
  -V(xc)+E(xc)   XCENC  =        53.96756298
  PAW double counting   =       496.86519423     -497.53652252
  entropy T*S    EENTRO =        -0.00000000
  eigenvalues    EBANDS =      -129.69847800
  atomic energy  EATOM  =       662.26749562
  Solvation  Ediel_sol  =         0.00000000
  ---------------------------------------------------
  free energy    TOTEN  =       -35.38289416 eV

  energy without entropy =      -35.38289416  energy(sigma->0) =      -35.38289416


--------------------------------------------------------------------------------------------------------




--------------------------------------- Iteration      1(   5)  ---------------------------------------


     EDDAV:  cpu time    0.0845: real time    0.0852
       DOS:  cpu time    0.0002: real time    0.0002
    CHARGE:  cpu time    0.0018: real time    0.0022
    MIXING:  cpu time    0.0006: real time    0.0007
    --------------------------------------------
      LOOP:  cpu time    0.0871: real time    0.0884

 eigenvalue-minimisations  :  1220
 total energy-change (2. order) :-0.2941647E-08  (-0.2942290E-08)
 number of electron      15.9999999 magnetization 
 augmentation part        0.3380923 magnetization 

 Broyden mixing:
  rms(total) = 0.13303E+01    rms(broyden)= 0.13193E+01
  rms(prec ) = 0.15789E+01
  weight for this iteration     100.00

 Free energy of the ion-electron system (eV)
  ---------------------------------------------------
  alpha Z        PSCENC =        34.59384069
  Ewald energy   TEWEN  =      -421.88703305
  -Hartree energ DENC   =      -233.95495412
  -exchange      EXHF   =         0.00000000
  -V(xc)+E(xc)   XCENC  =        53.96756298
  PAW double counting   =       496.86519423     -497.53652252
  entropy T*S    EENTRO =        -0.00000000
  eigenvalues    EBANDS =      -129.69847800
  atomic energy  EATOM  =       662.26749562
  Solvation  Ediel_sol  =         0.00000000
  ---------------------------------------------------
  free energy    TOTEN  =       -35.38289416 eV

  energy without entropy =      -35.38289416  energy(sigma->0) =      -35.38289416


--------------------------------------------------------------------------------------------------------




--------------------------------------- Iteration      1(   6)  ---------------------------------------


    POTLOK:  cpu time    0.0010: real time    0.0012
    SETDIJ:  cpu time    0.0016: real time    0.0016
     EDDAV:  cpu time    0.2074: real time    0.2087
       DOS:  cpu time    0.0002: real time    0.0002
    CHARGE:  cpu time    0.0019: real time    0.0020
    MIXING:  cpu time    0.0003: real time    0.0005
    --------------------------------------------
      LOOP:  cpu time    0.2124: real time    0.2142

 eigenvalue-minimisations  :  1380
 total energy-change (2. order) : 0.1260059E+01  (-0.2375156E+00)
 number of electron      15.9999999 magnetization 
 augmentation part        0.2946987 magnetization 

 Broyden mixing:
  rms(total) = 0.82908E+00    rms(broyden)= 0.82835E+00
  rms(prec ) = 0.93682E+00
  weight for this iteration     100.00

 eigenvalues of (default mixing * dielectric matrix)
  average eigenvalue GAMMA=   2.2648
  2.2648

 Free energy of the ion-electron system (eV)
  ---------------------------------------------------
  alpha Z        PSCENC =        34.59384069
  Ewald energy   TEWEN  =      -421.88703305
  -Hartree energ DENC   =      -252.27534233
  -exchange      EXHF   =         0.00000000
  -V(xc)+E(xc)   XCENC  =        55.03253795
  PAW double counting   =      1080.02000592    -1080.88423545
  entropy T*S    EENTRO =        -0.00000000
  eigenvalues    EBANDS =      -110.99010446
  atomic energy  EATOM  =       662.26749562
  Solvation  Ediel_sol  =         0.00000000
  ---------------------------------------------------
  free energy    TOTEN  =       -34.12283510 eV

  energy without entropy =      -34.12283510  energy(sigma->0) =      -34.12283510


--------------------------------------------------------------------------------------------------------




--------------------------------------- Iteration      1(   7)  ---------------------------------------


    POTLOK:  cpu time    0.0011: real time    0.0013
    SETDIJ:  cpu time    0.0016: real time    0.0016
     EDDAV:  cpu time    0.2382: real time    0.2397
       DOS:  cpu time    0.0002: real time    0.0002
    CHARGE:  cpu time    0.0018: real time    0.0018
    MIXING:  cpu time    0.0002: real time    0.0002
    --------------------------------------------
      LOOP:  cpu time    0.2431: real time    0.2449

 eigenvalue-minimisations  :  1580
 total energy-change (2. order) : 0.3664268E+00  (-0.8991130E-01)
 number of electron      15.9999999 magnetization 
 augmentation part        0.2759803 magnetization 

 Broyden mixing:
  rms(total) = 0.20591E+00    rms(broyden)= 0.20550E+00
  rms(prec ) = 0.22507E+00
  weight for this iteration     100.00

 eigenvalues of (default mixing * dielectric matrix)
  average eigenvalue GAMMA=   1.8584
  1.2009  2.5160

 Free energy of the ion-electron system (eV)
  ---------------------------------------------------
  alpha Z        PSCENC =        34.59384069
  Ewald energy   TEWEN  =      -421.88703305
  -Hartree energ DENC   =      -268.25735980
  -exchange      EXHF   =         0.00000000
  -V(xc)+E(xc)   XCENC  =        55.98054898
  PAW double counting   =      2216.01672248    -2217.04421639
  entropy T*S    EENTRO =        -0.00000000
  eigenvalues    EBANDS =       -95.42640684
  atomic energy  EATOM  =       662.26749562
  Solvation  Ediel_sol  =         0.00000000
  ---------------------------------------------------
  free energy    TOTEN  =       -33.75640831 eV

  energy without entropy =      -33.75640831  energy(sigma->0) =      -33.75640831


--------------------------------------------------------------------------------------------------------




--------------------------------------- Iteration      1(   8)  ---------------------------------------


    POTLOK:  cpu time    0.0010: real time    0.0012
    SETDIJ:  cpu time    0.0015: real time    0.0016
     EDDAV:  cpu time    0.2267: real time    0.2293
       DOS:  cpu time    0.0002: real time    0.0002
    CHARGE:  cpu time    0.0019: real time    0.0019
    MIXING:  cpu time    0.0002: real time    0.0002
    --------------------------------------------
      LOOP:  cpu time    0.2316: real time    0.2344

 eigenvalue-minimisations  :  1740
 total energy-change (2. order) : 0.7376768E-02  (-0.5620475E-02)
 number of electron      15.9999999 magnetization 
 augmentation part        0.2787982 magnetization 

 Broyden mixing:
  rms(total) = 0.22281E-01    rms(broyden)= 0.22033E-01
  rms(prec ) = 0.30102E-01
  weight for this iteration     100.00

 eigenvalues of (default mixing * dielectric matrix)
  average eigenvalue GAMMA=   1.8894
  1.1897  2.4681  2.0105

 Free energy of the ion-electron system (eV)
  ---------------------------------------------------
  alpha Z        PSCENC =        34.59384069
  Ewald energy   TEWEN  =      -421.88703305
  -Hartree energ DENC   =      -270.52170247
  -exchange      EXHF   =         0.00000000
  -V(xc)+E(xc)   XCENC  =        56.12263033
  PAW double counting   =      2591.85284716    -2592.88630459
  entropy T*S    EENTRO =        -0.00000000
  eigenvalues    EBANDS =       -93.29080523
  atomic energy  EATOM  =       662.26749562
  Solvation  Ediel_sol  =         0.00000000
  ---------------------------------------------------
  free energy    TOTEN  =       -33.74903154 eV

  energy without entropy =      -33.74903154  energy(sigma->0) =      -33.74903154


--------------------------------------------------------------------------------------------------------




--------------------------------------- Iteration      1(   9)  ---------------------------------------


    POTLOK:  cpu time    0.0009: real time    0.0012
    SETDIJ:  cpu time    0.0016: real time    0.0016
     EDDAV:  cpu time    0.2689: real time    0.2705
       DOS:  cpu time    0.0002: real time    0.0002
    CHARGE:  cpu time    0.0020: real time    0.0021
    MIXING:  cpu time    0.0002: real time    0.0002
    --------------------------------------------
      LOOP:  cpu time    0.2738: real time    0.2756

 eigenvalue-minimisations  :  1520
 total energy-change (2. order) :-0.8603780E-03  (-0.2426425E-03)
 number of electron      15.9999999 magnetization 
 augmentation part        0.2785522 magnetization 

 Broyden mixing:
  rms(total) = 0.51632E-02    rms(broyden)= 0.50919E-02
  rms(prec ) = 0.68436E-02
  weight for this iteration     100.00

 eigenvalues of (default mixing * dielectric matrix)
  average eigenvalue GAMMA=   1.8498
  2.4321  2.4321  1.2675  1.2675

 Free energy of the ion-electron system (eV)
  ---------------------------------------------------
  alpha Z        PSCENC =        34.59384069
  Ewald energy   TEWEN  =      -421.88703305
  -Hartree energ DENC   =      -270.42996497
  -exchange      EXHF   =         0.00000000
  -V(xc)+E(xc)   XCENC  =        56.12514899
  PAW double counting   =      2594.36488038    -2595.38085792
  entropy T*S    EENTRO =        -0.00000000
  eigenvalues    EBANDS =       -93.40340167
  atomic energy  EATOM  =       662.26749562
  Solvation  Ediel_sol  =         0.00000000
  ---------------------------------------------------
  free energy    TOTEN  =       -33.74989192 eV

  energy without entropy =      -33.74989192  energy(sigma->0) =      -33.74989192


--------------------------------------------------------------------------------------------------------




--------------------------------------- Iteration      1(  10)  ---------------------------------------


    POTLOK:  cpu time    0.0010: real time    0.0012
    SETDIJ:  cpu time    0.0016: real time    0.0016
     EDDAV:  cpu time    0.2623: real time    0.2640
       DOS:  cpu time    0.0002: real time    0.0002
    CHARGE:  cpu time    0.0018: real time    0.0019
    MIXING:  cpu time    0.0002: real time    0.0002
    --------------------------------------------
      LOOP:  cpu time    0.2670: real time    0.2690

 eigenvalue-minimisations  :  1780
 total energy-change (2. order) :-0.1509166E-03  (-0.1574849E-04)
 number of electron      15.9999999 magnetization 
 augmentation part        0.2788223 magnetization 

 Broyden mixing:
  rms(total) = 0.19671E-02    rms(broyden)= 0.18880E-02
  rms(prec ) = 0.29153E-02
  weight for this iteration     100.00

 eigenvalues of (default mixing * dielectric matrix)
  average eigenvalue GAMMA=   1.9229
  1.0346  1.1466  2.8612  2.4189  2.1530

 Free energy of the ion-electron system (eV)
  ---------------------------------------------------
  alpha Z        PSCENC =        34.59384069
  Ewald energy   TEWEN  =      -421.88703305
  -Hartree energ DENC   =      -270.36957946
  -exchange      EXHF   =         0.00000000
  -V(xc)+E(xc)   XCENC  =        56.12220386
  PAW double counting   =      2588.52730106    -2589.53938076
  entropy T*S    EENTRO =        -0.00000000
  eigenvalues    EBANDS =       -93.46489081
  atomic energy  EATOM  =       662.26749562
  Solvation  Ediel_sol  =         0.00000000
  ---------------------------------------------------
  free energy    TOTEN  =       -33.75004283 eV

  energy without entropy =      -33.75004283  energy(sigma->0) =      -33.75004283


--------------------------------------------------------------------------------------------------------




--------------------------------------- Iteration      1(  11)  ---------------------------------------


    POTLOK:  cpu time    0.0010: real time    0.0012
    SETDIJ:  cpu time    0.0016: real time    0.0016
     EDDAV:  cpu time    0.1628: real time    0.1639
       DOS:  cpu time    0.0002: real time    0.0002
    --------------------------------------------
      LOOP:  cpu time    0.1655: real time    0.1669

 eigenvalue-minimisations  :  1240
 total energy-change (2. order) :-0.2996789E-04  (-0.4213775E-05)
 number of electron      15.9999999 magnetization 
 augmentation part        0.2788223 magnetization 

 Free energy of the ion-electron system (eV)
  ---------------------------------------------------
  alpha Z        PSCENC =        34.59384069
  Ewald energy   TEWEN  =      -421.88703305
  -Hartree energ DENC   =      -270.47909509
  -exchange      EXHF   =         0.00000000
  -V(xc)+E(xc)   XCENC  =        56.12915761
  PAW double counting   =      2589.21073711    -2590.22294011
  entropy T*S    EENTRO =        -0.00000000
  eigenvalues    EBANDS =       -93.36223559
  atomic energy  EATOM  =       662.26749562
  Solvation  Ediel_sol  =         0.00000000
  ---------------------------------------------------
  free energy    TOTEN  =       -33.75007280 eV

  energy without entropy =      -33.75007280  energy(sigma->0) =      -33.75007280


--------------------------------------------------------------------------------------------------------




 average (electrostatic) potential at core
  the test charge radii are     0.7672  0.7089
  (the norm of the test charge is              1.0000)
       1 -30.2685       2 -30.2426       3 -68.4678       4 -68.4342
 
 
 
 E-fermi :   1.7684     XC(G=0):  -9.2916     alpha+bet : -9.6182


 k-point     1 :       0.0000    0.0000    0.0000
  band No.  band energies     occupation 
      1     -16.9867      2.00000
      2     -16.8778      2.00000
      3      -4.1965      2.00000
      4      -3.3423      2.00000
      5       0.4677      2.00000
      6       0.4678      2.00000
      7       0.5936      2.00000
      8       0.5936      2.00000
      9       5.8509      0.00000
     10      10.7937      0.00000
     11      11.9380      0.00000
     12      13.1153      0.00000
     13      13.1154      0.00000
     14      13.1740      0.00000
     15      13.1741      0.00000
     16      14.6082      0.00000
     17      14.8671      0.00000
     18      16.8960      0.00000
     19      19.5995      0.00000
     20      25.8210      0.00000

 k-point     2 :       0.1000    0.0000    0.0000
  band No.  band energies     occupation 
      1     -16.7912      2.00000
      2     -16.6956      2.00000
      3      -3.9920      2.00000
      4      -2.9897      2.00000
      5      -0.2921      2.00000
      6      -0.2243      2.00000
      7       0.1376      2.00000
      8       0.3290      2.00000
      9       6.2452      0.00000
     10      10.6973      0.00000
     11      12.1482      0.00000
     12      12.9898      0.00000
     13      13.4583      0.00000
     14      13.9777      0.00000
     15      13.9962      0.00000
     16      14.0418      0.00000
     17      15.7192      0.00000
     18      16.0698      0.00000
     19      20.0308      0.00000
     20      25.0551      0.00000

 k-point     3 :       0.2000    0.0000    0.0000
  band No.  band energies     occupation 
      1     -16.2476      2.00000
      2     -16.1613      2.00000
      3      -3.2136      2.00000
      4      -2.5756      2.00000
      5      -2.4198      2.00000
      6      -2.2851      2.00000
      7      -0.7663      2.00000
      8      -0.5016      2.00000
      9       7.1859      0.00000
     10      10.4919      0.00000
     11      11.8599      0.00000
     12      12.1564      0.00000
     13      12.5886      0.00000
     14      14.8480      0.00000
     15      14.9277      0.00000
     16      16.2137      0.00000
     17      16.3060      0.00000
     18      17.4929      0.00000
     19      20.9458      0.00000
     20      22.6501      0.00000

 k-point     4 :       0.3000    0.0000    0.0000
  band No.  band energies     occupation 
      1     -15.4183      2.00000
      2     -15.3473      2.00000
      3      -4.9304      2.00000
      4      -4.8455      2.00000
      5      -2.0732      2.00000
      6      -1.7840      2.00000
      7      -1.5577      2.00000
      8      -1.1715      2.00000
      9       8.5288      0.00000
     10       9.0996      0.00000
     11       9.8624      0.00000
     12      11.3864      0.00000
     13      12.2916      0.00000
     14      14.6741      0.00000
     15      16.4945      0.00000
     16      19.0948      0.00000
     17      19.1869      0.00000
     18      19.3114      0.00000
     19      20.3459      0.00000
     20      21.1188      0.00000

 k-point     5 :       0.4000    0.0000    0.0000
  band No.  band energies     occupation 
      1     -14.5060      2.00000
      2     -14.4299      2.00000
      3      -6.7928      2.00000
      4      -6.7305      2.00000
      5      -2.2147      2.00000
      6      -2.1139      2.00000
      7      -0.4833      2.00000
      8       0.0920      2.00000
      9       7.0322      0.00000
     10       7.7539      0.00000
     11       9.9600      0.00000
     12      11.0794      0.00000
     13      12.5647      0.00000
     14      15.5257      0.00000
     15      16.4742      0.00000
     16      18.6673      0.00000
     17      19.5948      0.00000
     18      21.6633      0.00000
     19      22.1485      0.00000
     20      22.3959      0.00000

 k-point     6 :       0.5000    0.0000    0.0000
  band No.  band energies     occupation 
      1     -14.0446      2.00000
      2     -14.0003      2.00000
      3      -7.6186      2.00000
      4      -7.4993      2.00000
      5      -2.5818      2.00000
      6      -2.4265      2.00000
      7       0.3820      2.00000
      8       0.6953      2.00000
      9       5.9150      0.00000
     10       6.6338      0.00000
     11      10.6498      0.00000
     12      10.8307      0.00000
     13      13.8432      0.00000
     14      14.4286      0.00000
     15      16.2642      0.00000
     16      17.7697      0.00000
     17      20.4513      0.00000
     18      22.0298      0.00000
     19      22.6004      0.00000
     20      23.5374      0.00000

 k-point     7 :       0.1000    0.1000    0.0000
  band No.  band energies     occupation 
      1     -16.4230      2.00000
      2     -16.3343      2.00000
      3      -3.4410      2.00000
      4      -2.4561      2.00000
      5      -1.7756      2.00000
      6      -1.6827      2.00000
      7      -0.5661      2.00000
      8      -0.5107      2.00000
      9       6.9124      0.00000
     10      10.7352      0.00000
     11      12.5795      0.00000
     12      12.7637      0.00000
     13      13.0754      0.00000
     14      13.5441      0.00000
     15      14.8625      0.00000
     16      15.2624      0.00000
     17      15.8611      0.00000
     18      17.3498      0.00000
     19      20.7620      0.00000
     20      23.1286      0.00000

 k-point     8 :       0.2000    0.1000    0.0000
  band No.  band energies     occupation 
      1     -15.7299      2.00000
      2     -15.6542      2.00000
      3      -3.8475      2.00000
      4      -3.7804      2.00000
      5      -2.4821      2.00000
      6      -1.6768      2.00000
      7      -1.5326      2.00000
      8      -1.5320      2.00000
      9       8.1011      0.00000
     10       9.8977      0.00000
     11      10.7660      0.00000
     12      12.5143      0.00000
     13      13.1660      0.00000
     14      14.6100      0.00000
     15      14.9335      0.00000
     16      16.4220      0.00000
     17      18.2723      0.00000
     18      19.8271      0.00000
     19      20.4291      0.00000
     20      21.5626      0.00000

 k-point     9 :       0.3000    0.1000    0.0000
  band No.  band energies     occupation 
      1     -14.8391      2.00000
      2     -14.7661      2.00000
      3      -5.9726      2.00000
      4      -5.8696      2.00000
      5      -2.5467      2.00000
      6      -2.4957      2.00000
      7      -1.0698      2.00000
      8      -0.3339      2.00000
      9       8.0094      0.00000
     10       8.5678      0.00000
     11       9.6576      0.00000
     12      12.1535      0.00000
     13      13.0470      0.00000
     14      14.9670      0.00000
     15      16.5874      0.00000
     16      18.3598      0.00000
     17      18.4081      0.00000
     18      20.3544      0.00000
     19      20.9079      0.00000
     20      21.4745      0.00000

 k-point    10 :       0.4000    0.1000    0.0000
  band No.  band energies     occupation 
      1     -14.0778      2.00000
      2     -14.0259      2.00000
      3      -7.2682      2.00000
      4      -7.1936      2.00000
      5      -3.0218      2.00000
      6      -2.9626      2.00000
      7       0.2711      2.00000
      8       0.7213      2.00000
      9       6.2607      0.00000
     10       6.9012      0.00000
     11      11.1470      0.00000
     12      11.8236      0.00000
     13      13.5480      0.00000
     14      15.5280      0.00000
     15      15.6305      0.00000
     16      17.1279      0.00000
     17      19.8049      0.00000
     18      20.9596      0.00000
     19      21.3859      0.00000
     20      22.7425      0.00000

 k-point    11 :       0.2000    0.2000    0.0000
  band No.  band energies     occupation 
      1     -14.9623      2.00000
      2     -14.8866      2.00000
      3      -5.2884      2.00000
      4      -5.2229      2.00000
      5      -3.1856      2.00000
      6      -3.1584      2.00000
      7      -1.2533      2.00000
      8      -0.5024      2.00000
      9       8.6372      0.00000
     10       8.9365      0.00000
     11       9.5725      0.00000
     12      14.3332      0.00000
     13      14.5300      0.00000
     14      14.6817      0.00000
     15      14.7324      0.00000
     16      16.3925      0.00000
     17      17.7289      0.00000
     18      20.1317      0.00000
     19      20.8444      0.00000
     20      21.6721      0.00000

 k-point    12 :       0.3000    0.2000    0.0000
  band No.  band energies     occupation 
      1     -14.1382      2.00000
      2     -14.0864      2.00000
      3      -6.5360      2.00000
      4      -6.4855      2.00000
      5      -4.1870      2.00000
      6      -4.1010      2.00000
      7       0.1630      2.00000
      8       0.6827      2.00000
      9       7.0058      0.00000
     10       7.3041      0.00000
     11      11.4767      0.00000
     12      14.1081      0.00000
     13      14.7410      0.00000
     14      14.9478      0.00000
     15      15.8981      0.00000
     16      16.1999      0.00000
     17      18.0207      0.00000
     18      20.2566      0.00000
     19      20.2714      0.00000
     20      21.2069      0.00000

 k-point    13 :       0.4000    0.2000    0.0000
  band No.  band energies     occupation 
      1     -13.7218      2.00000
      2     -13.6927      2.00000
      3      -7.0267      2.00000
      4      -6.9985      2.00000
      5      -4.6112      2.00000
      6      -4.4048      2.00000
      7       0.9956      2.00000
      8       1.3251      2.00000
      9       6.0876      0.00000
     10       6.5446      0.00000
     11      13.1972      0.00000
     12      13.4776      0.00000
     13      14.7078      0.00000
     14      14.8805      0.00000
     15      15.2188      0.00000
     16      15.8735      0.00000
     17      19.5147      0.00000
     18      20.5507      0.00000
     19      20.8628      0.00000
     20      21.2151      0.00000

 k-point    14 :       0.3000    0.3000    0.0000
  band No.  band energies     occupation 
      1     -13.5998      2.00000
      2     -13.5703      2.00000
      3      -6.5531      2.00000
      4      -6.5250      2.00000
      5      -5.3946      2.00000
      6      -5.3665      2.00000
      7       1.2776      2.00000
      8       1.5216      2.00000
      9       6.2179      0.00000
     10       6.3474      0.00000
     11      13.6204      0.00000
     12      14.0365      0.00000
     13      14.4234      0.00000
     14      15.0682      0.00000
     15      16.0028      0.00000
     16      17.5582      0.00000
     17      18.5086      0.00000
     18      19.5589      0.00000
     19      20.3560      0.00000
     20      20.6563      0.00000

 k-point    15 :       0.0000    0.0000    0.3333
  band No.  band energies     occupation 
      1     -16.9596      2.00000
      2     -16.9055      2.00000
      3      -4.0633      2.00000
      4      -3.5037      2.00000
      5       0.5812      2.00000
      6       0.5813      2.00000
      7       0.6123      2.00000
      8       0.6124      2.00000
      9       6.7322      0.00000
     10       8.7712      0.00000
     11      13.1045      0.00000
     12      13.1700      0.00000
     13      13.1701      0.00000
     14      13.2079      0.00000
     15      13.2080      0.00000
     16      14.0704      0.00000
     17      15.4319      0.00000
     18      16.1329      0.00000
     19      21.2206      0.00000
     20      24.2457      0.00000

 k-point    16 :       0.1000    0.0000    0.3333
  band No.  band energies     occupation 
      1     -16.7750      2.00000
      2     -16.7208      2.00000
      3      -3.8071      2.00000
      4      -3.3228      2.00000
      5      -0.3460      2.00000
      6      -0.2980      2.00000
      7       0.1618      2.00000
      8       0.2366      2.00000
      9       7.0746      0.00000
     10       9.0433      0.00000
     11      12.6943      0.00000
     12      12.9045      0.00000
     13      13.6334      0.00000
     14      13.8173      0.00000
     15      14.0182      0.00000
     16      14.0483      0.00000
     17      15.7332      0.00000
     18      15.9049      0.00000
     19      21.4255      0.00000
     20      23.9729      0.00000

 k-point    17 :       0.2000    0.0000    0.3333
  band No.  band energies     occupation 
      1     -16.2286      2.00000
      2     -16.1806      2.00000
      3      -3.0122      2.00000
      4      -2.6354      2.00000
      5      -2.5505      2.00000
      6      -2.4553      2.00000
      7      -0.7426      2.00000
      8      -0.6741      2.00000
      9       7.9304      0.00000
     10       9.5962      0.00000
     11      11.9985      0.00000
     12      12.1363      0.00000
     13      12.7291      0.00000
     14      13.3840      0.00000
     15      16.2421      0.00000
     16      16.2995      0.00000
     17      16.5172      0.00000
     18      17.2946      0.00000
     19      21.7096      0.00000
     20      22.6734      0.00000

 k-point    18 :       0.3000    0.0000    0.3333
  band No.  band energies     occupation 
      1     -15.4012      2.00000
      2     -15.3522      2.00000
      3      -4.9362      2.00000
      4      -4.8891      2.00000
      5      -1.7405      2.00000
      6      -1.6590      2.00000
      7      -1.5691      2.00000
      8      -1.3551      2.00000
      9       8.7605      0.00000
     10       9.1533      0.00000
     11      10.2568      0.00000
     12      11.1911      0.00000
     13      12.4000      0.00000
     14      13.2554      0.00000
     15      17.8156      0.00000
     16      18.8074      0.00000
     17      19.2448      0.00000
     18      19.3120      0.00000
     19      20.4028      0.00000
     20      21.4538      0.00000

 k-point    19 :       0.4000    0.0000    0.3333
  band No.  band energies     occupation 
      1     -14.4974      2.00000
      2     -14.4579      2.00000
      3      -6.8415      2.00000
      4      -6.7943      2.00000
      5      -2.2677      2.00000
      6      -2.2350      2.00000
      7      -0.2876      2.00000
      8      -0.0232      2.00000
      9       7.1480      0.00000
     10       7.4294      0.00000
     11      10.4757      0.00000
     12      10.9800      0.00000
     13      12.9103      0.00000
     14      14.2651      0.00000
     15      17.1615      0.00000
     16      18.2200      0.00000
     17      19.8993      0.00000
     18      21.4563      0.00000
     19      22.1855      0.00000
     20      22.2709      0.00000

 k-point    20 :       0.5000    0.0000    0.3333
  band No.  band energies     occupation 
      1     -14.0274      2.00000
      2     -13.9941      2.00000
      3      -7.5706      2.00000
      4      -7.5273      2.00000
      5      -2.5289      2.00000
      6      -2.3746      2.00000
      7       0.5636      2.00000
      8       0.7136      2.00000
      9       6.0837      0.00000
     10       6.3787      0.00000
     11      10.8008      0.00000
     12      10.8825      0.00000
     13      14.3696      0.00000
     14      14.7169      0.00000
     15      16.0083      0.00000
     16      16.9590      0.00000
     17      20.2100      0.00000
     18      21.5109      0.00000
     19      23.5683      0.00000
     20      23.6207      0.00000

 k-point    21 :       0.1000    0.1000    0.3333
  band No.  band energies     occupation 
      1     -16.4074      2.00000
      2     -16.3567      2.00000
      3      -3.2573      2.00000
      4      -2.8202      2.00000
      5      -1.7767      2.00000
      6      -1.7290      2.00000
      7      -0.5445      2.00000
      8      -0.5154      2.00000
      9       7.6838      0.00000
     10       9.5031      0.00000
     11      12.6794      0.00000
     12      12.7607      0.00000
     13      13.1118      0.00000
     14      13.3101      0.00000
     15      14.8130      0.00000
     16      14.9214      0.00000
     17      16.6475      0.00000
     18      17.1822      0.00000
     19      21.6983      0.00000
     20      22.9671      0.00000

 k-point    22 :       0.2000    0.1000    0.3333
  band No.  band energies     occupation 
      1     -15.7159      2.00000
      2     -15.6671      2.00000
      3      -3.8759      2.00000
      4      -3.8426      2.00000
      5      -2.2233      2.00000
      6      -1.8307      2.00000
      7      -1.6619      2.00000
      8      -1.5942      2.00000
      9       8.6650      0.00000
     10       9.6818      0.00000
     11      11.0263      0.00000
     12      11.9887      0.00000
     13      13.1561      0.00000
     14      13.3816      0.00000
     15      15.9790      0.00000
     16      16.3193      0.00000
     17      18.8200      0.00000
     18      19.5325      0.00000
     19      20.5788      0.00000
     20      21.6548      0.00000

 k-point    23 :       0.3000    0.1000    0.3333
  band No.  band energies     occupation 
      1     -14.8239      2.00000
      2     -14.7795      2.00000
      3      -5.9065      2.00000
      4      -5.8582      2.00000
      5      -2.5634      2.00000
      6      -2.4971      2.00000
      7      -0.8440      2.00000
      8      -0.5376      2.00000
      9       8.1080      0.00000
     10       8.3566      0.00000
     11      10.5701      0.00000
     12      11.8520      0.00000
     13      13.1239      0.00000
     14      13.8090      0.00000
     15      17.2710      0.00000
     16      18.1453      0.00000
     17      18.7320      0.00000
     18      19.7355      0.00000
     19      21.2678      0.00000
     20      22.1656      0.00000

 k-point    24 :       0.4000    0.1000    0.3333
  band No.  band energies     occupation 
      1     -14.0721      2.00000
      2     -14.0343      2.00000
      3      -7.2684      2.00000
      4      -7.2322      2.00000
      5      -2.9954      2.00000
      6      -2.9375      2.00000
      7       0.4745      2.00000
      8       0.6320      2.00000
      9       6.4146      0.00000
     10       6.6918      0.00000
     11      11.4837      0.00000
     12      11.7999      0.00000
     13      13.8636      0.00000
     14      14.7876      0.00000
     15      16.1383      0.00000
     16      17.1838      0.00000
     17      19.0523      0.00000
     18      20.4978      0.00000
     19      22.1662      0.00000
     20      22.5580      0.00000

 k-point    25 :       0.2000    0.2000    0.3333
  band No.  band energies     occupation 
      1     -14.9464      2.00000
      2     -14.9040      2.00000
      3      -5.2625      2.00000
      4      -5.1929      2.00000
      5      -3.1311      2.00000
      6      -3.1039      2.00000
      7      -1.0862      2.00000
      8      -0.7032      2.00000
      9       8.6670      0.00000
     10       8.6971      0.00000
     11      10.6481      0.00000
     12      12.6665      0.00000
     13      14.4534      0.00000
     14      14.5591      0.00000
     15      15.7704      0.00000
     16      16.2855      0.00000
     17      18.0214      0.00000
     18      18.9586      0.00000
     19      21.5302      0.00000
     20      22.4363      0.00000

 k-point    26 :       0.3000    0.2000    0.3333
  band No.  band energies     occupation 
      1     -14.1255      2.00000
      2     -14.0873      2.00000
      3      -6.5066      2.00000
      4      -6.4605      2.00000
      5      -4.1391      2.00000
      6      -4.1059      2.00000
      7       0.2822      2.00000
      8       0.5723      2.00000
      9       7.0302      0.00000
     10       7.2048      0.00000
     11      12.1218      0.00000
     12      13.4165      0.00000
     13      14.7173      0.00000
     14      14.8637      0.00000
     15      15.9279      0.00000
     16      16.8048      0.00000
     17      17.8188      0.00000
     18      18.8182      0.00000
     19      20.9234      0.00000
     20      22.1833      0.00000

 k-point    27 :       0.4000    0.2000    0.3333
  band No.  band energies     occupation 
      1     -13.7269      2.00000
      2     -13.6964      2.00000
      3      -7.0599      2.00000
      4      -7.0026      2.00000
      5      -4.4826      2.00000
      6      -4.4132      2.00000
      7       1.0948      2.00000
      8       1.2257      2.00000
      9       6.1322      0.00000
     10       6.3612      0.00000
     11      13.2967      0.00000
     12      13.4620      0.00000
     13      14.6227      0.00000
     14      14.6725      0.00000
     15      15.7279      0.00000
     16      16.6569      0.00000
     17      18.3503      0.00000
     18      19.7795      0.00000
     19      20.8451      0.00000
     20      21.7802      0.00000

 k-point    28 :       0.3000    0.3000    0.3333
  band No.  band energies     occupation 
      1     -13.6000      2.00000
      2     -13.5701      2.00000
      3      -6.5456      2.00000
      4      -6.5191      2.00000
      5      -5.4039      2.00000
      6      -5.3755      2.00000
      7       1.2646      2.00000
      8       1.4265      2.00000
      9       6.2084      0.00000
     10       6.2803      0.00000
     11      13.2793      0.00000
     12      13.6031      0.00000
     13      14.8948      0.00000
     14      16.0190      0.00000
     15      16.2534      0.00000
     16      17.1999      0.00000
     17      18.3903      0.00000
     18      19.1406      0.00000
     19      19.6419      0.00000
     20      21.3790      0.00000


--------------------------------------------------------------------------------------------------------


 soft charge-density along one line, spin component           1
         0         1         2         3         4         5         6         7         8         9
 total charge-density along one line
 
 pseudopotential strength for first ion, spin component:           1
  6.442   9.810  -0.000  -0.000  -0.000  -0.000  -0.000  -0.000
  9.810  14.932  -0.000  -0.000  -0.000  -0.000  -0.000  -0.000
 -0.000  -0.000  -2.190  -0.000  -0.000  -3.728  -0.000  -0.000
 -0.000  -0.000  -0.000  -2.188  -0.000  -0.000  -3.722  -0.000
 -0.000  -0.000  -0.000  -0.000  -2.190  -0.000  -0.000  -3.728
 -0.000  -0.000  -3.728  -0.000  -0.000  -6.146  -0.000  -0.000
 -0.000  -0.000  -0.000  -3.722  -0.000  -0.000  -6.130  -0.000
 -0.000  -0.000  -0.000  -0.000  -3.728  -0.000  -0.000  -6.146
 total augmentation occupancy for first ion, spin component:           1
  3.685  -0.999  -0.000   0.000   0.000   0.000   0.000   0.000
 -0.999   0.318  -0.000   0.000   0.000  -0.000   0.000   0.000
 -0.000   0.000   8.110   0.000   0.000  -3.002   0.000   0.000
  0.000   0.000   0.000   2.536   0.000  -0.000  -0.808   0.000
  0.000   0.000   0.000   0.000   8.110   0.000   0.000  -3.002
 -0.000   0.000  -3.002   0.000   0.000   1.115  -0.000   0.000
  0.000   0.000   0.000  -0.808   0.000   0.000   0.259   0.000
 -0.000   0.000   0.000   0.000  -3.002   0.000   0.000   1.115


------------------------ aborting loop because EDIFF is reached ----------------------------------------


 


 total charge     
 
# of ion       s       p       d       tot
------------------------------------------
    1        0.729   1.516   0.000   2.245
    2        0.729   1.516   0.000   2.244
    3        1.364   2.399   0.000   3.763
    4        1.364   2.399   0.000   3.764
--------------------------------------------------
tot          4.186   7.830   0.000  12.016
 
    CHARGE:  cpu time    0.0017: real time    0.0017
    FORLOC:  cpu time    0.0001: real time    0.0001
    FORNL :  cpu time    0.0031: real time    0.0033
    STRESS:  cpu time    0.0221: real time    0.0224
    FORCOR:  cpu time    0.0008: real time    0.0010
    FORHAR:  cpu time    0.0003: real time    0.0005
    MIXING:  cpu time    0.0001: real time    0.0001
    OFIELD:  cpu time    0.0000: real time    0.0001

  FORCE on cell =-STRESS in cart. coord.  units (eV):
  Direction    XX          YY          ZZ          XY          YZ          ZX
  --------------------------------------------------------------------------------------
  Alpha Z    34.59384    34.59384    34.59384
  Ewald     121.29472   121.29472  -664.47690    -0.00000    -0.00000    -0.00000
  Hartree   217.96224   217.96224  -165.44127    -0.00000     0.00000    -0.00000
  E(xc)     -62.49749   -62.49726   -64.37591     0.00000     0.00000    -0.00002
  Local    -556.17682  -556.18920   581.71545     0.00000    -0.00000     0.00191
  n-local   -31.55510   -31.40279   -31.65886    -0.65638    -0.02391     0.01318
  augment     2.24058     2.24095     2.40776     0.00000    -0.00000    -0.00000
  Kinetic   254.53848   247.90100   283.36963     2.72810    -0.02977    -0.12749
  Fock        0.00000     0.00000     0.00000     0.00000     0.00000     0.00000
  -------------------------------------------------------------------------------------
  Total     -22.84803   -22.84803   -23.86627     0.00000     0.00000    -0.00000
  in kB    -889.68172  -889.68172  -929.33090     0.00000     0.00000    -0.00000
  external pressure =     -902.90 kB  Pullay stress =        0.00 kB


 VOLUME and BASIS-vectors are now :
 -----------------------------------------------------------------------------
  energy-cutoff  :      200.00
  volume of cell :       41.15
      direct lattice vectors                 reciprocal lattice vectors
     1.256237318 -2.175866861  0.000000000     0.398013968 -0.229793472  0.000000000
     1.256237318  2.175866861  0.000000000     0.398013968  0.229793472  0.000000000
     0.000000000  0.000000000  7.526459174     0.000000000  0.000000000  0.132864602

  length of vectors
     2.512474636  2.512474636  7.526459174     0.459586943  0.459586943  0.132864602


 FORCES acting on ions
    electron-ion (+dipol)            ewald-force                    non-local-force                 convergence-correction
 -----------------------------------------------------------------------------------------------
   -.846E-13 0.227E-04 -.886E-14   0.466E-14 -.651E-11 -.139E-13   0.278E-16 0.555E-16 0.000E+00   0.140E-14 -.488E-05 0.132E-13
   -.514E-13 0.224E-04 -.208E-12   0.347E-14 0.130E-10 0.139E-13   -.278E-16 -.555E-16 0.000E+00   -.141E-15 -.494E-05 -.262E-13
   -.149E-13 0.177E-03 0.129E-13   -.352E-14 0.651E-11 -.231E-13   -.694E-17 0.486E-16 0.000E+00   0.593E-16 -.779E-06 0.152E-13
   -.184E-12 0.177E-03 -.214E-11   -.271E-14 -.130E-10 0.231E-13   0.173E-17 -.416E-16 0.000E+00   0.100E-13 -.808E-06 -.506E-13
 -----------------------------------------------------------------------------------------------
   -.335E-12 0.399E-03 -.234E-11   0.191E-14 0.202E-14 0.000E+00   -.520E-17 0.694E-17 0.000E+00   0.114E-13 -.114E-04 -.484E-13
 
 
 POSITION                                       TOTAL-FORCE (eV/Angst)
 -----------------------------------------------------------------------------------
      0.00000      0.00000      0.00000         0.000000     -0.000000      0.000000
      1.25624      0.72529      3.76323        -0.000000      0.000000      0.000000
      1.25624      0.72529      0.00000         0.000000     -0.000000      0.000000
      1.25624     -0.72529      3.76323         0.000000      0.000000      0.000000
 -----------------------------------------------------------------------------------
    total drift:                               -0.000000      0.000388     -0.000000


--------------------------------------------------------------------------------------------------------



  FREE ENERGIE OF THE ION-ELECTRON SYSTEM (eV)
  ---------------------------------------------------
  free  energy   TOTEN  =       -33.75007280 eV

  energy  without entropy=      -33.75007280  energy(sigma->0) =      -33.75007280
 


--------------------------------------------------------------------------------------------------------


    POTLOK:  cpu time    0.0029: real time    0.0030


--------------------------------------------------------------------------------------------------------


 writing wavefunctions
     LOOP+:  cpu time    2.1668: real time    2.2065
    4ORBIT:  cpu time    0.0000: real time    0.0000
 


 total charge     
 
# of ion       s       p       d       tot
------------------------------------------
    1        0.729   1.516   0.000   2.245
    2        0.729   1.516   0.000   2.244
    3        1.364   2.399   0.000   3.763
    4        1.364   2.399   0.000   3.764
--------------------------------------------------
tot          4.186   7.830   0.000  12.016
 

 total amount of memory used by VASP MPI-rank0    31532. kBytes
=======================================================================

   base      :      30000. kBytes
   nonl-proj :       1021. kBytes
   fftplans  :        179. kBytes
   grid      :        177. kBytes
   one-center:         12. kBytes
   wavefun   :        143. kBytes
 
  
  
 General timing and accounting informations for this job:
 ========================================================
  
                  Total CPU time used (sec):        2.548
                            User time (sec):        2.351
                          System time (sec):        0.197
                         Elapsed time (sec):        2.879
  
                   Maximum memory used (kb):       64780.
                   Average memory used (kb):           0.
  
                          Minor page faults:         8873
                          Major page faults:            6
                 Voluntary context switches:         3725
