 vasp.5.4.4.18Apr17-6-g9f103f2a35 (build May 10 2019 17:57:18) complex          
  
 executed on             LinuxIFC date 2024.07.15  13:13:05
 running on   20 total cores
 distrk:  each k-point on   20 cores,    1 groups
 distr:  one band on NCORES_PER_BAND=   1 cores,   20 groups


--------------------------------------------------------------------------------------------------------


 INCAR:
 POTCAR:    PAW_PBE B 06Sep2000                   
 POTCAR:    PAW_PBE N 08Apr2002                   

 ----------------------------------------------------------------------------- 
|                                                                             |
|           W    W    AA    RRRRR   N    N  II  N    N   GGGG   !!!           |
|           W    W   A  A   R    R  NN   N  II  NN   N  G    G  !!!           |
|           W    W  A    A  R    R  N N  N  II  N N  N  G       !!!           |
|           W WW W  AAAAAA  RRRRR   N  N N  II  N  N N  G  GGG   !            |
|           WW  WW  A    A  R   R   N   NN  II  N   NN  G    G                |
|           W    W  A    A  R    R  N    N  II  N    N   GGGG   !!!           |
|                                                                             |
|      For optimal performance we recommend to set                            |
|        NCORE= 4 - approx SQRT( number of cores)                             |
|      NCORE specifies how many cores store one orbital (NPAR=cpu/NCORE).     |
|      This setting can  greatly improve the performance of VASP for DFT.     |
|      The default,   NCORE=1            might be grossly inefficient         |
|      on modern multi-core architectures or massively parallel machines.     |
|      Do your own testing !!!!                                               |
|      Unfortunately you need to use the default for GW and RPA calculations. |
|      (for HF NCORE is supported but not extensively tested yet)             |
|                                                                             |
 ----------------------------------------------------------------------------- 

 POTCAR:    PAW_PBE B 06Sep2000                   
   SHA256 =  a32ced30f5ae56fd4d10b4325ff17eb3e4e38ee0f4288bc219fb012fddfa6e97 B/
   COPYR  = (c) Copyright 06Sep2000 Georg Kresse                                
   COPYR  = This file is part of the software VASP. Any use, copying, and all ot
   COPYR  = If you do not have a valid VASP license, you may not use, copy or di
   VRHFIN =B: s2p1                                                              
   LEXCH  = PE                                                                  
   EATOM  =    71.1703 eV,    5.2309 Ry                                         
                                                                                
   TITEL  = PAW_PBE B 06Sep2000                                                 
   LULTRA =        F    use ultrasoft PP ?                                      
   IUNSCR =        1    unscreen: 0-lin 1-nonlin 2-no                           
   RPACOR =    1.200    partial core radius                                     
   POMASS =   10.811; ZVAL   =    3.000    mass and valenz                      
   RCORE  =    1.700    outmost cutoff radius                                   
   RWIGS  =    1.710; RWIGS  =    0.905    wigner-seitz radius (au A)           
   ENMAX  =  318.614; ENMIN  =  238.960 eV                                      
   ICORE  =        2    local potential                                         
   LCOR   =        T    correct aug charges                                     
   LPAW   =        T    paw PP                                                  
   EAUG   =  535.514                                                            
   DEXC   =    0.000                                                            
   RMAX   =    1.732    core radius for proj-oper                               
   RAUG   =    1.300    factor for augmentation sphere                          
   RDEP   =    1.757    radius for radial grids                                 
   RDEPT  =    1.436    core radius for aug-charge                              
                                                                                
   Atomic configuration                                                         
    4 entries                                                                   
     n  l   j            E        occ.                                          
     1  0  0.50      -180.5896   2.0000                                         
     2  0  0.50        -9.4431   2.0000                                         
     2  1  0.50        -3.6068   1.0000                                         
     3  2  1.50        -4.0817   0.0000                                         
   Description                                                                  
     l       E           TYP  RCUT    TYP  RCUT                                 
     0     -9.4430752     23  1.500                                             
     0      0.8675899     23  1.500                                             
     1     -3.6067955     23  1.700                                             
     1      6.1086146     23  1.700                                             
     2     -4.0817478      7  1.700                                             
  local pseudopotential read in
  partial core-charges read in
  partial kinetic energy density read in
  atomic valenz-charges read in
  non local Contribution for L=           0  read in
    real space projection operators read in
  non local Contribution for L=           0  read in
    real space projection operators read in
  non local Contribution for L=           1  read in
    real space projection operators read in
  non local Contribution for L=           1  read in
    real space projection operators read in
    PAW grid and wavefunctions read in
 
   number of l-projection  operators is LMAX  =           4
   number of lm-projection operators is LMMAX =           8
 
 POTCAR:    PAW_PBE N 08Apr2002                   
   SHA256 =  e053789ff3a61a86a1b75d8a110fcc91f86041011e7b0817c7c99e4e8a6349d7 N/
   COPYR  = (c) Copyright 08Apr2002 Georg Kresse                                
   COPYR  = This file is part of the software VASP. Any use, copying, and all ot
   COPYR  = If you do not have a valid VASP license, you may not use, copy or di
   VRHFIN =N: s2p3                                                              
   LEXCH  = PE                                                                  
   EATOM  =   264.5486 eV,   19.4438 Ry                                         
                                                                                
   TITEL  = PAW_PBE N 08Apr2002                                                 
   LULTRA =        F    use ultrasoft PP ?                                      
   IUNSCR =        1    unscreen: 0-lin 1-nonlin 2-no                           
   RPACOR =    1.200    partial core radius                                     
   POMASS =   14.001; ZVAL   =    5.000    mass and valenz                      
   RCORE  =    1.500    outmost cutoff radius                                   
   RWIGS  =    1.400; RWIGS  =    0.741    wigner-seitz radius (au A)           
   ENMAX  =  400.000; ENMIN  =  300.000 eV                                      
   ICORE  =        2    local potential                                         
   LCOR   =        T    correct aug charges                                     
   LPAW   =        T    paw PP                                                  
   EAUG   =  627.112                                                            
   DEXC   =    0.000                                                            
   RMAX   =    1.529    core radius for proj-oper                               
   RAUG   =    1.300    factor for augmentation sphere                          
   RDEP   =    1.514    radius for radial grids                                 
   RDEPT  =    1.338    core radius for aug-charge                              
                                                                                
   Atomic configuration                                                         
    4 entries                                                                   
     n  l   j            E        occ.                                          
     1  0  0.50      -384.7179   2.0000                                         
     2  0  0.50       -18.5828   2.0000                                         
     2  1  0.50        -7.0898   3.0000                                         
     3  2  1.50        -6.8029   0.0000                                         
   Description                                                                  
     l       E           TYP  RCUT    TYP  RCUT                                 
     0    -18.5828119     23  1.200                                             
     0    -13.5018863     23  1.200                                             
     1     -7.0897853     23  1.500                                             
     1      9.5240782     23  1.500                                             
     2     -6.8029130      7  1.500                                             
  local pseudopotential read in
  partial core-charges read in
  partial kinetic energy density read in
  atomic valenz-charges read in
  non local Contribution for L=           0  read in
    real space projection operators read in
  non local Contribution for L=           0  read in
    real space projection operators read in
  non local Contribution for L=           1  read in
    real space projection operators read in
  non local Contribution for L=           1  read in
    real space projection operators read in
    PAW grid and wavefunctions read in
 
   number of l-projection  operators is LMAX  =           4
   number of lm-projection operators is LMMAX =           8
 
  PAW_PBE B 06Sep2000                   :
 energy of atom  1       EATOM=  -71.1703
 kinetic energy error for atom=    0.0002 (will be added to EATOM!!)
  PAW_PBE N 08Apr2002                   :
 energy of atom  2       EATOM= -264.5486
 kinetic energy error for atom=    0.0029 (will be added to EATOM!!)
 
 
 POSCAR: B2 N2                                   
  positions in direct lattice
  velocities in cartesian coordinates
 exchange correlation table for  LEXCH =        8
   RHO(1)=    0.500       N(1)  =     2000
   RHO(2)=  100.500       N(2)  =     4000
 


--------------------------------------------------------------------------------------------------------


 ion  position               nearest neighbor table
   1  0.000  0.000  0.000-   3 1.45   3 1.45   3 1.45
   2  0.333  0.667  0.500-   4 1.45   4 1.45   4 1.45
   3  0.333  0.667  0.000-   1 1.45   1 1.45   1 1.45
   4  0.667  0.333  0.500-   2 1.45   2 1.45   2 1.45
 
  LATTYP: Found a hexagonal cell.
 ALAT       =     2.5124746362
 C/A-ratio  =     2.9956358826
  
  Lattice vectors:
  
 A1 = (   1.2562373181,  -2.1758668613,   0.0000000000)
 A2 = (   1.2562373181,   2.1758668613,   0.0000000000)
 A3 = (   0.0000000000,   0.0000000000,   7.5264591742)


Analysis of symmetry for initial positions (statically):
=====================================================================
 Subroutine PRICEL returns:
 Original cell was already a primitive cell.
 

 Routine SETGRP: Setting up the symmetry group for a 
 hexagonal supercell.


 Subroutine GETGRP returns: Found 12 space group operations
 (whereof 12 operations were pure point group operations)
 out of a pool of 24 trial point group operations.


The static configuration has the point symmetry D_3h.


Analysis of symmetry for dynamics (positions and initial velocities):
=====================================================================
 Subroutine PRICEL returns:
 Original cell was already a primitive cell.
 

 Routine SETGRP: Setting up the symmetry group for a 
 hexagonal supercell.


 Subroutine GETGRP returns: Found 12 space group operations
 (whereof 12 operations were pure point group operations)
 out of a pool of 24 trial point group operations.


The dynamic configuration has the point symmetry D_3h.


 Subroutine INISYM returns: Found 12 space group operations
 (whereof 12 operations are pure point group operations),
 and found     1 'primitive' translations

 
 
 KPOINTS: A                                       

Automatic generation of k-mesh.
Space group operators:
 irot       det(A)        alpha          n_x          n_y          n_z        tau_x        tau_y        tau_z
    1     1.000000     0.000000     1.000000     0.000000     0.000000     0.000000     0.000000     0.000000
    2    -1.000000    60.000000     0.000000     0.000000    -1.000000     0.000000     0.000000     0.000000
    3     1.000000   120.000000     0.000000     0.000000    -1.000000     0.000000     0.000000     0.000000
    4    -1.000000   180.000000     0.000000     0.000000     1.000000     0.000000     0.000000     0.000000
    5     1.000000   120.000000     0.000000     0.000000     1.000000     0.000000     0.000000     0.000000
    6    -1.000000    60.000000     0.000000     0.000000     1.000000     0.000000     0.000000     0.000000
    7    -1.000000   180.000000     0.500000    -0.866025     0.000000     0.000000     0.000000     0.000000
    8     1.000000   180.000000     0.000000     1.000000     0.000000     0.000000     0.000000     0.000000
    9    -1.000000   180.000000    -0.500000    -0.866025     0.000000     0.000000     0.000000     0.000000
   10     1.000000   180.000000     0.866025     0.500000     0.000000     0.000000     0.000000     0.000000
   11    -1.000000   180.000000     1.000000     0.000000     0.000000     0.000000     0.000000     0.000000
   12     1.000000   180.000000     0.866025    -0.500000     0.000000     0.000000     0.000000     0.000000
 
 Subroutine IBZKPT returns following result:
 ===========================================
 
 Found     28 irreducible k-points:
 
 Following reciprocal coordinates:
            Coordinates               Weight
  0.000000  0.000000  0.000000      1.000000
  0.100000  0.000000  0.000000      6.000000
  0.200000  0.000000  0.000000      6.000000
  0.300000  0.000000  0.000000      6.000000
  0.400000  0.000000  0.000000      6.000000
  0.500000  0.000000  0.000000      3.000000
  0.100000  0.100000  0.000000      6.000000
  0.200000  0.100000  0.000000     12.000000
  0.300000  0.100000  0.000000     12.000000
  0.400000  0.100000  0.000000     12.000000
  0.200000  0.200000  0.000000      6.000000
  0.300000  0.200000  0.000000     12.000000
  0.400000  0.200000  0.000000      6.000000
  0.300000  0.300000  0.000000      6.000000
  0.000000  0.000000  0.333333      2.000000
  0.100000  0.000000  0.333333     12.000000
  0.200000  0.000000  0.333333     12.000000
  0.300000  0.000000  0.333333     12.000000
  0.400000  0.000000  0.333333     12.000000
  0.500000  0.000000  0.333333      6.000000
  0.100000  0.100000  0.333333     12.000000
  0.200000  0.100000  0.333333     24.000000
  0.300000  0.100000  0.333333     24.000000
  0.400000  0.100000  0.333333     24.000000
  0.200000  0.200000  0.333333     12.000000
  0.300000  0.200000  0.333333     24.000000
  0.400000  0.200000  0.333333     12.000000
  0.300000  0.300000  0.333333     12.000000
 
 Following cartesian coordinates:
            Coordinates               Weight
  0.000000  0.000000  0.000000      1.000000
  0.039801 -0.022979  0.000000      6.000000
  0.079603 -0.045959  0.000000      6.000000
  0.119404 -0.068938  0.000000      6.000000
  0.159206 -0.091917  0.000000      6.000000
  0.199007 -0.114897  0.000000      3.000000
  0.079603  0.000000  0.000000      6.000000
  0.119404 -0.022979  0.000000     12.000000
  0.159206 -0.045959  0.000000     12.000000
  0.199007 -0.068938  0.000000     12.000000
  0.159206  0.000000  0.000000      6.000000
  0.199007 -0.022979  0.000000     12.000000
  0.238808 -0.045959  0.000000      6.000000
  0.238808  0.000000  0.000000      6.000000
  0.000000  0.000000  0.044288      2.000000
  0.039801 -0.022979  0.044288     12.000000
  0.079603 -0.045959  0.044288     12.000000
  0.119404 -0.068938  0.044288     12.000000
  0.159206 -0.091917  0.044288     12.000000
  0.199007 -0.114897  0.044288      6.000000
  0.079603  0.000000  0.044288     12.000000
  0.119404 -0.022979  0.044288     24.000000
  0.159206 -0.045959  0.044288     24.000000
  0.199007 -0.068938  0.044288     24.000000
  0.159206  0.000000  0.044288     12.000000
  0.199007 -0.022979  0.044288     24.000000
  0.238808 -0.045959  0.044288     12.000000
  0.238808  0.000000  0.044288     12.000000
 


--------------------------------------------------------------------------------------------------------




 Dimension of arrays:
   k-points           NKPTS =     28   k-points in BZ     NKDIM =     28   number of bands    NBANDS=     20
   number of dos      NEDOS =    301   number of ions     NIONS =      4
   non local maximal  LDIM  =      4   non local SUM 2l+1 LMDIM =      8
   total plane-waves  NPLWV =  17496
   max r-space proj   IRMAX =      1   max aug-charges    IRDMAX=  53242
   dimension x,y,z NGX =    18 NGY =   18 NGZ =   54
   dimension x,y,z NGXF=    36 NGYF=   36 NGZF=  108
   support grid    NGXF=    72 NGYF=   72 NGZF=  216
   ions per type =               2   2
   NGX,Y,Z   is equivalent  to a cutoff of  11.91, 11.91, 11.93 a.u.
   NGXF,Y,Z  is equivalent  to a cutoff of  23.82, 23.82, 23.86 a.u.

 SYSTEM =  BN                                      
 POSCAR =  B2 N2                                   

 Startparameter for this run:
   NWRITE =      2    write-flag & timer
   PREC   = normal    normal or accurate (medium, high low for compatibility)
   ISTART =      1    job   : 0-new  1-cont  2-samecut
   ICHARG =      0    charge: 1-file 2-atom 10-const
   ISPIN  =      1    spin polarized calculation?
   LNONCOLLINEAR =      F non collinear calculations
   LSORBIT =      F    spin-orbit coupling
   INIWAV =      1    electr: 0-lowe 1-rand  2-diag
   LASPH  =      F    aspherical Exc in radial PAW
   METAGGA=      F    non-selfconsistent MetaGGA calc.

 Electronic Relaxation 1
   ENCUT  =  800.0 eV  58.80 Ry    7.67 a.u.   5.79  5.79 17.36*2*pi/ulx,y,z
   ENINI  =  800.0     initial cutoff
   ENAUG  =  627.1 eV  augmentation charge cutoff
   NELM   =     60;   NELMIN=  2; NELMDL=  0     # of ELM steps 
   EDIFF  = 0.1E-03   stopping-criterion for ELM
   LREAL  =      F    real-space projection
   NLSPLINE    = F    spline interpolate recip. space projectors
   LCOMPAT=      F    compatible to vasp.4.4
   GGA_COMPAT  = T    GGA compatible to vasp.4.4-vasp.4.6
   LMAXPAW     = -100 max onsite density
   LMAXMIX     =    2 max onsite mixed and CHGCAR
   VOSKOWN=      0    Vosko Wilk Nusair interpolation
   ROPT   =    0.00000   0.00000
 Ionic relaxation
   EDIFFG = 0.1E-02   stopping-criterion for IOM
   NSW    =      0    number of steps for IOM
   NBLOCK =      1;   KBLOCK =      1    inner block; outer block 
   IBRION =     -1    ionic relax: 0-MD 1-quasi-New 2-CG
   NFREE  =      0    steps in history (QN), initial steepest desc. (CG)
   ISIF   =      2    stress and relaxation
   IWAVPR =     10    prediction:  0-non 1-charg 2-wave 3-comb
   ISYM   =      2    0-nonsym 1-usesym 2-fastsym
   LCORR  =      T    Harris-Foulkes like correction to forces

   POTIM  = 0.5000    time-step for ionic-motion
   TEIN   =    0.0    initial temperature
   TEBEG  =    0.0;   TEEND  =   0.0 temperature during run
   SMASS  =  -3.00    Nose mass-parameter (am)
   estimated Nose-frequenzy (Omega)   =  0.10E-29 period in steps =****** mass=  -0.144E-27a.u.
   SCALEE = 1.0000    scale energy and forces
   NPACO  =    256;   APACO  = 16.0  distance and # of slots for P.C.
   PSTRESS=    0.0 pullay stress

  Mass of Ions in am
   POMASS =  10.81 14.00
  Ionic Valenz
   ZVAL   =   3.00  5.00
  Atomic Wigner-Seitz radii
   RWIGS  =  -1.00 -1.00
  virtual crystal weights 
   VCA    =   1.00  1.00
   NELECT =      16.0000    total number of electrons
   NUPDOWN=      -1.0000    fix difference up-down

 DOS related values:
   EMIN   =  10.00;   EMAX   =-10.00  energy-range for DOS
   EFERMI =   0.00
   ISMEAR =     0;   SIGMA  =   0.05  broadening in eV -4-tet -1-fermi 0-gaus

 Electronic relaxation 2 (details)
   IALGO  =     38    algorithm
   LDIAG  =      T    sub-space diagonalisation (order eigenvalues)
   LSUBROT=      F    optimize rotation matrix (better conditioning)
   TURBO    =      0    0=normal 1=particle mesh
   IRESTART =      0    0=no restart 2=restart with 2 vectors
   NREBOOT  =      0    no. of reboots
   NMIN     =      0    reboot dimension
   EREF     =   0.00    reference energy to select bands
   IMIX   =      4    mixing-type and parameters
     AMIX     =   0.40;   BMIX     =  1.00
     AMIX_MAG =   1.60;   BMIX_MAG =  1.00
     AMIN     =   0.10
     WC   =   100.;   INIMIX=   1;  MIXPRE=   1;  MAXMIX= -45

 Intra band minimization:
   WEIMIN = 0.0000     energy-eigenvalue tresh-hold
   EBREAK =  0.13E-05  absolut break condition
   DEPER  =   0.30     relativ break condition  

   TIME   =   0.40     timestep for ELM

  volume/ion in A,a.u.               =      10.29        69.42
  Fermi-wavevector in a.u.,A,eV,Ry     =   1.194923  2.258077 19.426956  1.427841
  Thomas-Fermi vector in A             =   2.330901
 
 Write flags
   LWAVE        =      T    write WAVECAR
   LDOWNSAMPLE  =      F    k-point downsampling of WAVECAR
   LCHARG       =      T    write CHGCAR
   LVTOT        =      F    write LOCPOT, total local potential
   LVHAR        =      F    write LOCPOT, Hartree potential only
   LELF         =      F    write electronic localiz. function (ELF)
   LORBIT       =     11    0 simple, 1 ext, 2 COOP (PROOUT), +10 PAW based schemes


 Dipole corrections
   LMONO  =      F    monopole corrections only (constant potential shift)
   LDIPOL =      F    correct potential (dipole corrections)
   IDIPOL =      0    1-x, 2-y, 3-z, 4-all directions 
   EPSILON=  1.0000000 bulk dielectric constant

 Exchange correlation treatment:
   GGA     =    --    GGA type
   LEXCH   =     8    internal setting for exchange type
   VOSKOWN=      0    Vosko Wilk Nusair interpolation
   LHFCALC =     F    Hartree Fock is set to
   LHFONE  =     F    Hartree Fock one center treatment
   AEXX    =    0.0000 exact exchange contribution

 Linear response parameters
   LEPSILON=     F    determine dielectric tensor
   LRPA    =     F    only Hartree local field effects (RPA)
   LNABLA  =     F    use nabla operator in PAW spheres
   LVEL    =     F    velocity operator in full k-point grid
   LINTERFAST=   F  fast interpolation
   KINTER  =     0    interpolate to denser k-point grid
   CSHIFT  =0.1000    complex shift for real part using Kramers Kronig
   OMEGAMAX=  -1.0    maximum frequency
   DEG_THRESHOLD= 0.2000000E-02 threshold for treating states as degnerate
   RTIME   =   -0.100 relaxation time in fs
  (WPLASMAI=    0.000 imaginary part of plasma frequency in eV, 0.658/RTIME)
   DFIELD  = 0.0000000 0.0000000 0.0000000 field for delta impulse in time
 
 Orbital magnetization related:
   ORBITALMAG=     F  switch on orbital magnetization
   LCHIMAG   =     F  perturbation theory with respect to B field
   DQ        =  0.001000  dq finite difference perturbation B field
   LLRAUG    =     F  two centre corrections for induced B field



--------------------------------------------------------------------------------------------------------


 Static calculation
 charge density and potential will be updated during run
 non-spin polarized calculation
 Variant of blocked Davidson
 Davidson routine will perform the subspace rotation
 perform sub-space diagonalisation
    after iterative eigenvector-optimisation
 modified Broyden-mixing scheme, WC =      100.0
 initial mixing is a Kerker type mixing with AMIX =  0.4000 and BMIX =      1.0000
 Hartree-type preconditioning will be used
 using additional bands           12
 reciprocal scheme for non local part
 use partial core corrections
 calculate Harris-corrections to forces 
   (improved forces if not selfconsistent)
 use gradient corrections 
 use of overlap-Matrix (Vanderbilt PP)
 Gauss-broadening in eV      SIGMA  =   0.05


--------------------------------------------------------------------------------------------------------


  energy-cutoff  :      800.00
  volume of cell :       41.15
      direct lattice vectors                 reciprocal lattice vectors
     1.256237318 -2.175866861  0.000000000     0.398013968 -0.229793472  0.000000000
     1.256237318  2.175866861  0.000000000     0.398013968  0.229793472  0.000000000
     0.000000000  0.000000000  7.526459174     0.000000000  0.000000000  0.132864602

  length of vectors
     2.512474636  2.512474636  7.526459174     0.459586943  0.459586943  0.132864602


 
 old parameters found on file WAVECAR:
  energy-cutoff  :      700.00
  volume of cell :       41.15
      direct lattice vectors                 reciprocal lattice vectors
     1.256237318 -2.175866861  0.000000000     0.398013968 -0.229793472  0.000000000
     1.256237318  2.175866861  0.000000000     0.398013968  0.229793472  0.000000000
     0.000000000  0.000000000  7.526459174     0.000000000  0.000000000  0.132864602

  length of vectors

 
 k-points in units of 2pi/SCALE and weight: A                                       
   0.00000000  0.00000000  0.00000000       0.003
   0.03980140 -0.02297935  0.00000000       0.020
   0.07960279 -0.04595869  0.00000000       0.020
   0.11940419 -0.06893804  0.00000000       0.020
   0.15920559 -0.09191739  0.00000000       0.020
   0.19900698 -0.11489674  0.00000000       0.010
   0.07960279  0.00000000  0.00000000       0.020
   0.11940419 -0.02297935  0.00000000       0.040
   0.15920559 -0.04595869  0.00000000       0.040
   0.19900698 -0.06893804  0.00000000       0.040
   0.15920559  0.00000000  0.00000000       0.020
   0.19900698 -0.02297935  0.00000000       0.040
   0.23880838 -0.04595869  0.00000000       0.020
   0.23880838  0.00000000  0.00000000       0.020
   0.00000000  0.00000000  0.04428820       0.007
   0.03980140 -0.02297935  0.04428820       0.040
   0.07960279 -0.04595869  0.04428820       0.040
   0.11940419 -0.06893804  0.04428820       0.040
   0.15920559 -0.09191739  0.04428820       0.040
   0.19900698 -0.11489674  0.04428820       0.020
   0.07960279  0.00000000  0.04428820       0.040
   0.11940419 -0.02297935  0.04428820       0.080
   0.15920559 -0.04595869  0.04428820       0.080
   0.19900698 -0.06893804  0.04428820       0.080
   0.15920559  0.00000000  0.04428820       0.040
   0.19900698 -0.02297935  0.04428820       0.080
   0.23880838 -0.04595869  0.04428820       0.040
   0.23880838  0.00000000  0.04428820       0.040
 
 k-points in reciprocal lattice and weights: A                                       
   0.00000000  0.00000000  0.00000000       0.003
   0.10000000  0.00000000  0.00000000       0.020
   0.20000000  0.00000000  0.00000000       0.020
   0.30000000  0.00000000  0.00000000       0.020
   0.40000000  0.00000000  0.00000000       0.020
   0.50000000  0.00000000  0.00000000       0.010
   0.10000000  0.10000000  0.00000000       0.020
   0.20000000  0.10000000  0.00000000       0.040
   0.30000000  0.10000000  0.00000000       0.040
   0.40000000  0.10000000  0.00000000       0.040
   0.20000000  0.20000000  0.00000000       0.020
   0.30000000  0.20000000  0.00000000       0.040
   0.40000000  0.20000000  0.00000000       0.020
   0.30000000  0.30000000  0.00000000       0.020
   0.00000000  0.00000000  0.33333333       0.007
   0.10000000  0.00000000  0.33333333       0.040
   0.20000000  0.00000000  0.33333333       0.040
   0.30000000  0.00000000  0.33333333       0.040
   0.40000000  0.00000000  0.33333333       0.040
   0.50000000  0.00000000  0.33333333       0.020
   0.10000000  0.10000000  0.33333333       0.040
   0.20000000  0.10000000  0.33333333       0.080
   0.30000000  0.10000000  0.33333333       0.080
   0.40000000  0.10000000  0.33333333       0.080
   0.20000000  0.20000000  0.33333333       0.040
   0.30000000  0.20000000  0.33333333       0.080
   0.40000000  0.20000000  0.33333333       0.040
   0.30000000  0.30000000  0.33333333       0.040
 
 position of ions in fractional coordinates (direct lattice) 
   0.00000000  0.00000000  0.00000000
   0.33333333  0.66666667  0.50000000
   0.33333333  0.66666667  0.00000000
   0.66666667  0.33333333  0.50000000
 
 position of ions in cartesian coordinates  (Angst):
   0.00000000  0.00000000  0.00000000
   1.25623732  0.72528895  3.76322959
   1.25623732  0.72528895  0.00000000
   1.25623732 -0.72528895  3.76322959
 


--------------------------------------------------------------------------------------------------------


 k-point  1 :   0.0000 0.0000 0.0000  plane waves:    2117
 k-point  2 :   0.1000 0.0000 0.0000  plane waves:    2102
 k-point  3 :   0.2000 0.0000 0.0000  plane waves:    2106
 k-point  4 :   0.3000 0.0000 0.0000  plane waves:    2130
 k-point  5 :   0.4000 0.0000 0.0000  plane waves:    2124
 k-point  6 :   0.5000 0.0000 0.0000  plane waves:    2132
 k-point  7 :   0.1000 0.1000 0.0000  plane waves:    2103
 k-point  8 :   0.2000 0.1000 0.0000  plane waves:    2115
 k-point  9 :   0.3000 0.1000 0.0000  plane waves:    2125
 k-point 10 :   0.4000 0.1000 0.0000  plane waves:    2120
 k-point 11 :   0.2000 0.2000 0.0000  plane waves:    2112
 k-point 12 :   0.3000 0.2000 0.0000  plane waves:    2105
 k-point 13 :   0.4000 0.2000 0.0000  plane waves:    2110
 k-point 14 :   0.3000 0.3000 0.0000  plane waves:    2116
 k-point 15 :   0.0000 0.0000 0.3333  plane waves:    2105
 k-point 16 :   0.1000 0.0000 0.3333  plane waves:    2106
 k-point 17 :   0.2000 0.0000 0.3333  plane waves:    2106
 k-point 18 :   0.3000 0.0000 0.3333  plane waves:    2110
 k-point 19 :   0.4000 0.0000 0.3333  plane waves:    2124
 k-point 20 :   0.5000 0.0000 0.3333  plane waves:    2128
 k-point 21 :   0.1000 0.1000 0.3333  plane waves:    2104
 k-point 22 :   0.2000 0.1000 0.3333  plane waves:    2105
 k-point 23 :   0.3000 0.1000 0.3333  plane waves:    2122
 k-point 24 :   0.4000 0.1000 0.3333  plane waves:    2113
 k-point 25 :   0.2000 0.2000 0.3333  plane waves:    2114
 k-point 26 :   0.3000 0.2000 0.3333  plane waves:    2118
 k-point 27 :   0.4000 0.2000 0.3333  plane waves:    2106
 k-point 28 :   0.3000 0.3000 0.3333  plane waves:    2102

 maximum and minimum number of plane-waves per node :      2132     2102

 maximum number of plane-waves:      2132
 maximum index in each direction: 
   IXMAX=    5   IYMAX=    5   IZMAX=   17
   IXMIN=   -6   IYMIN=   -6   IZMIN=  -17


 serial   3D FFT for wavefunctions
 parallel 3D FFT for charge:
    minimum data exchange during FFTs selected (reduces bandwidth)


 total amount of memory used by VASP MPI-rank0    41129. kBytes
=======================================================================

   base      :      30000. kBytes
   nonl-proj :       7806. kBytes
   fftplans  :       1189. kBytes
   grid      :       1146. kBytes
   one-center:         12. kBytes
   wavefun   :        976. kBytes
 
     INWAV:  cpu time    0.0637: real time    0.0649
 Broyden mixing: mesh for mixing (old mesh)
   NGX = 11   NGY = 11   NGZ = 35
  (NGX  = 36   NGY  = 36   NGZ  =108)
  gives a total of   4235 points

 charge density for first step will be calculated from the start-wavefunctions


--------------------------------------------------------------------------------------------------------


 Maximum index for augmentation-charges         3277 (set IRDMAX)


--------------------------------------------------------------------------------------------------------


 initial charge from wavefunction
 First call to EWALD:  gamma=   0.513
 Maximum number of real-space cells 4x 4x 2
 Maximum number of reciprocal cells 2x 2x 5

    FEWALD:  cpu time    0.0016: real time    0.0016


--------------------------------------- Iteration      1(   1)  ---------------------------------------


    POTLOK:  cpu time    0.0046: real time    0.0059
    SETDIJ:  cpu time    0.0043: real time    0.0043
     EDDAV:  cpu time    0.2142: real time    0.2156
       DOS:  cpu time    0.0004: real time    0.0004
    CHARGE:  cpu time    0.0113: real time    0.0114
    MIXING:  cpu time    0.0005: real time    0.0005
    --------------------------------------------
      LOOP:  cpu time    0.2353: real time    0.2381

 eigenvalue-minimisations  :  1120
 total energy-change (2. order) :-0.3521230E+02  (-0.9439942E-02)
 number of electron      16.0000000 magnetization 
 augmentation part        0.4788829 magnetization 

 Broyden mixing:
  rms(total) = 0.77635E-02    rms(broyden)= 0.76681E-02
  rms(prec ) = 0.77865E-02
  weight for this iteration     100.00

 Free energy of the ion-electron system (eV)
  ---------------------------------------------------
  alpha Z        PSCENC =        34.59384069
  Ewald energy   TEWEN  =      -421.88703305
  -Hartree energ DENC   =      -281.50518576
  -exchange      EXHF   =         0.00000000
  -V(xc)+E(xc)   XCENC  =        56.67659785
  PAW double counting   =      1808.60224826    -1810.09002991
  entropy T*S    EENTRO =        -0.00000000
  eigenvalues    EBANDS =       -93.03426120
  atomic energy  EATOM  =       671.43151903
  Solvation  Ediel_sol  =         0.00000000
  ---------------------------------------------------
  free energy    TOTEN  =       -35.21230408 eV

  energy without entropy =      -35.21230408  energy(sigma->0) =      -35.21230408


--------------------------------------------------------------------------------------------------------




--------------------------------------- Iteration      1(   2)  ---------------------------------------


    POTLOK:  cpu time    0.0037: real time    0.0080
    SETDIJ:  cpu time    0.0039: real time    0.0039
     EDDAV:  cpu time    0.1087: real time    0.1093
       DOS:  cpu time    0.0002: real time    0.0002
    --------------------------------------------
      LOOP:  cpu time    0.1165: real time    0.1215

 eigenvalue-minimisations  :   560
 total energy-change (2. order) :-0.5394680E-04  (-0.2644632E-05)
 number of electron      16.0000000 magnetization 
 augmentation part        0.4788829 magnetization 

 Free energy of the ion-electron system (eV)
  ---------------------------------------------------
  alpha Z        PSCENC =        34.59384069
  Ewald energy   TEWEN  =      -421.88703305
  -Hartree energ DENC   =      -281.51442780
  -exchange      EXHF   =         0.00000000
  -V(xc)+E(xc)   XCENC  =        56.67710839
  PAW double counting   =      1804.03703929    -1805.52947854
  entropy T*S    EENTRO =        -0.00000000
  eigenvalues    EBANDS =       -93.02092605
  atomic energy  EATOM  =       671.43151903
  Solvation  Ediel_sol  =         0.00000000
  ---------------------------------------------------
  free energy    TOTEN  =       -35.21235802 eV

  energy without entropy =      -35.21235802  energy(sigma->0) =      -35.21235802


--------------------------------------------------------------------------------------------------------




 average (electrostatic) potential at core
  the test charge radii are     0.7672  0.7089
  (the norm of the test charge is              1.0000)
       1 -30.0288       2 -29.9978       3 -65.9160       4 -65.8800
 
 
 
 E-fermi :   1.5620     XC(G=0):  -9.2332     alpha+bet : -9.6182


 k-point     1 :       0.0000    0.0000    0.0000
  band No.  band energies     occupation 
      1     -16.3670      2.00000
      2     -16.2570      2.00000
      3      -4.4330      2.00000
      4      -3.3266      2.00000
      5      -0.0650      2.00000
      6      -0.0650      2.00000
      7      -0.0317      2.00000
      8      -0.0317      2.00000
      9       5.9571      0.00000
     10      10.1159      0.00000
     11      12.4678      0.00000
     12      12.7908      0.00000
     13      12.7908      0.00000
     14      12.8311      0.00000
     15      12.8311      0.00000
     16      14.0038      0.00000
     17      15.2984      0.00000
     18      16.1743      0.00000
     19      19.5824      0.00000
     20      25.6317      0.00000

 k-point     2 :       0.1000    0.0000    0.0000
  band No.  band energies     occupation 
      1     -16.1751      2.00000
      2     -16.0677      2.00000
      3      -4.1694      2.00000
      4      -3.0808      2.00000
      5      -0.8520      2.00000
      6      -0.8179      2.00000
      7      -0.4248      2.00000
      8      -0.3908      2.00000
      9       6.3021      0.00000
     10      10.1554      0.00000
     11      12.3713      0.00000
     12      12.7136      0.00000
     13      13.3008      0.00000
     14      13.3834      0.00000
     15      13.6253      0.00000
     16      13.6659      0.00000
     17      15.6654      0.00000
     18      15.9157      0.00000
     19      20.0032      0.00000
     20      24.8062      0.00000

 k-point     3 :       0.2000    0.0000    0.0000
  band No.  band energies     occupation 
      1     -15.6152      2.00000
      2     -15.5156      2.00000
      3      -3.3943      2.00000
      4      -2.7208      2.00000
      5      -2.6811      2.00000
      6      -2.3637      2.00000
      7      -1.2351      2.00000
      8      -1.1997      2.00000
      9       7.2136      0.00000
     10       9.9747      0.00000
     11      11.7063      0.00000
     12      11.9563      0.00000
     13      12.4770      0.00000
     14      14.6944      0.00000
     15      14.7207      0.00000
     16      15.8101      0.00000
     17      15.8543      0.00000
     18      17.3645      0.00000
     19      20.8556      0.00000
     20      22.4403      0.00000

 k-point     4 :       0.3000    0.0000    0.0000
  band No.  band energies     occupation 
      1     -14.7523      2.00000
      2     -14.6666      2.00000
      3      -4.8943      2.00000
      4      -4.8470      2.00000
      5      -2.1704      2.00000
      6      -2.0607      2.00000
      7      -2.0243      2.00000
      8      -1.2586      2.00000
      9       8.5546      0.00000
     10       8.7923      0.00000
     11       9.4699      0.00000
     12      11.5416      0.00000
     13      12.3031      0.00000
     14      14.5019      0.00000
     15      16.2674      0.00000
     16      18.7146      0.00000
     17      18.7707      0.00000
     18      18.7756      0.00000
     19      20.1221      0.00000
     20      20.9812      0.00000

 k-point     5 :       0.4000    0.0000    0.0000
  band No.  band energies     occupation 
      1     -13.7845      2.00000
      2     -13.7212      2.00000
      3      -6.7627      2.00000
      4      -6.7068      2.00000
      5      -2.6341      2.00000
      6      -2.5972      2.00000
      7      -0.6993      2.00000
      8      -0.0340      2.00000
      9       6.8378      0.00000
     10       7.4269      0.00000
     11      10.0507      0.00000
     12      11.2299      0.00000
     13      12.5315      0.00000
     14      15.2598      0.00000
     15      16.1548      0.00000
     16      18.3965      0.00000
     17      19.1594      0.00000
     18      21.1837      0.00000
     19      21.5216      0.00000
     20      21.6315      0.00000

 k-point     6 :       0.5000    0.0000    0.0000
  band No.  band energies     occupation 
      1     -13.2750      2.00000
      2     -13.2336      2.00000
      3      -7.5824      2.00000
      4      -7.5231      2.00000
      5      -2.8363      2.00000
      6      -2.7992      2.00000
      7       0.2326      2.00000
      8       0.5258      2.00000
      9       5.7859      0.00000
     10       6.4448      0.00000
     11      10.8261      0.00000
     12      10.9943      0.00000
     13      13.6826      0.00000
     14      14.2986      0.00000
     15      15.9781      0.00000
     16      17.4801      0.00000
     17      19.7055      0.00000
     18      21.5084      0.00000
     19      22.4178      0.00000
     20      22.8229      0.00000

 k-point     7 :       0.1000    0.1000    0.0000
  band No.  band energies     occupation 
      1     -15.7987      2.00000
      2     -15.6965      2.00000
      3      -3.6497      2.00000
      4      -2.5988      2.00000
      5      -2.0543      2.00000
      6      -2.0199      2.00000
      7      -1.1337      2.00000
      8      -1.1004      2.00000
      9       6.9361      0.00000
     10      10.0958      0.00000
     11      12.2565      0.00000
     12      12.6931      0.00000
     13      12.8847      0.00000
     14      13.3606      0.00000
     15      14.5938      0.00000
     16      14.9336      0.00000
     17      15.4622      0.00000
     18      17.1849      0.00000
     19      20.6704      0.00000
     20      22.9504      0.00000

 k-point     8 :       0.2000    0.1000    0.0000
  band No.  band energies     occupation 
      1     -15.0827      2.00000
      2     -14.9912      2.00000
      3      -3.9029      2.00000
      4      -3.8638      2.00000
      5      -2.6458      2.00000
      6      -2.1282      2.00000
      7      -2.0929      2.00000
      8      -1.6813      2.00000
      9       8.1004      0.00000
     10       9.4232      0.00000
     11      10.3625      0.00000
     12      12.5380      0.00000
     13      13.0257      0.00000
     14      14.4048      0.00000
     15      14.7376      0.00000
     16      16.1695      0.00000
     17      17.8367      0.00000
     18      19.3173      0.00000
     19      20.2802      0.00000
     20      21.3965      0.00000

 k-point     9 :       0.3000    0.1000    0.0000
  band No.  band energies     occupation 
      1     -14.1418      2.00000
      2     -14.0679      2.00000
      3      -5.8618      2.00000
      4      -5.8128      2.00000
      5      -2.9149      2.00000
      6      -2.8769      2.00000
      7      -1.2702      2.00000
      8      -0.4767      2.00000
      9       7.7815      0.00000
     10       8.2630      0.00000
     11       9.6668      0.00000
     12      12.1981      0.00000
     13      13.0112      0.00000
     14      14.7277      0.00000
     15      16.2515      0.00000
     16      18.1277      0.00000
     17      18.2048      0.00000
     18      20.0425      0.00000
     19      20.4538      0.00000
     20      21.3404      0.00000

 k-point    10 :       0.4000    0.1000    0.0000
  band No.  band energies     occupation 
      1     -13.3210      2.00000
      2     -13.2729      2.00000
      3      -7.2542      2.00000
      4      -7.1973      2.00000
      5      -3.3333      2.00000
      6      -3.2942      2.00000
      7       0.0884      2.00000
      8       0.5275      2.00000
      9       6.1166      0.00000
     10       6.6916      0.00000
     11      11.1999      0.00000
     12      11.9044      0.00000
     13      13.4487      0.00000
     14      15.2943      0.00000
     15      15.4040      0.00000
     16      16.9439      0.00000
     17      19.2863      0.00000
     18      20.7798      0.00000
     19      20.9104      0.00000
     20      22.1107      0.00000

 k-point    11 :       0.2000    0.2000    0.0000
  band No.  band energies     occupation 
      1     -14.2731      2.00000
      2     -14.1956      2.00000
      3      -5.1983      2.00000
      4      -5.1643      2.00000
      5      -3.4298      2.00000
      6      -3.3945      2.00000
      7      -1.4742      2.00000
      8      -0.6411      2.00000
      9       8.2688      0.00000
     10       8.6598      0.00000
     11       9.5485      0.00000
     12      14.1267      0.00000
     13      14.2885      0.00000
     14      14.4620      0.00000
     15      14.6108      0.00000
     16      16.2665      0.00000
     17      17.6469      0.00000
     18      19.6699      0.00000
     19      20.7161      0.00000
     20      21.4221      0.00000

 k-point    12 :       0.3000    0.2000    0.0000
  band No.  band energies     occupation 
      1     -13.3907      2.00000
      2     -13.3345      2.00000
      3      -6.4961      2.00000
      4      -6.4514      2.00000
      5      -4.3349      2.00000
      6      -4.2940      2.00000
      7      -0.0908      2.00000
      8       0.4898      2.00000
      9       6.7658      0.00000
     10       7.0593      0.00000
     11      11.3951      0.00000
     12      13.9338      0.00000
     13      14.5483      0.00000
     14      14.7504      0.00000
     15      15.8125      0.00000
     16      15.9638      0.00000
     17      17.7442      0.00000
     18      20.0352      0.00000
     19      20.0854      0.00000
     20      20.8253      0.00000

 k-point    13 :       0.4000    0.2000    0.0000
  band No.  band energies     occupation 
      1     -12.9450      2.00000
      2     -12.9070      2.00000
      3      -7.1231      2.00000
      4      -7.0695      2.00000
      5      -4.6265      2.00000
      6      -4.5823      2.00000
      7       0.7629      2.00000
      8       0.9959      2.00000
      9       5.9133      0.00000
     10       6.3085      0.00000
     11      13.0240      0.00000
     12      13.3528      0.00000
     13      14.5696      0.00000
     14      14.7170      0.00000
     15      15.1237      0.00000
     16      15.6888      0.00000
     17      19.0254      0.00000
     18      20.2390      0.00000
     19      20.3589      0.00000
     20      20.9487      0.00000

 k-point    14 :       0.3000    0.3000    0.0000
  band No.  band energies     occupation 
      1     -12.8084      2.00000
      2     -12.7710      2.00000
      3      -6.6641      2.00000
      4      -6.6256      2.00000
      5      -5.5369      2.00000
      6      -5.4973      2.00000
      7       0.9752      2.00000
      8       1.2170      2.00000
      9       6.0301      0.00000
     10       6.1613      0.00000
     11      13.3724      0.00000
     12      13.9429      0.00000
     13      14.3607      0.00000
     14      14.6070      0.00000
     15      15.6470      0.00000
     16      17.1736      0.00000
     17      18.2940      0.00000
     18      19.4915      0.00000
     19      20.0077      0.00000
     20      20.2898      0.00000

 k-point    15 :       0.0000    0.0000    0.3333
  band No.  band energies     occupation 
      1     -16.3432      2.00000
      2     -16.2819      2.00000
      3      -4.1883      2.00000
      4      -3.6397      2.00000
      5      -0.0648      2.00000
      6      -0.0648      2.00000
      7      -0.0318      2.00000
      8      -0.0318      2.00000
      9       6.7807      0.00000
     10       8.6992      0.00000
     11      12.7946      0.00000
     12      12.7946      0.00000
     13      12.8272      0.00000
     14      12.8272      0.00000
     15      13.1790      0.00000
     16      13.7994      0.00000
     17      15.4475      0.00000
     18      15.8377      0.00000
     19      21.1010      0.00000
     20      24.0039      0.00000

 k-point    16 :       0.1000    0.0000    0.3333
  band No.  band energies     occupation 
      1     -16.1520      2.00000
      2     -16.0917      2.00000
      3      -3.9286      2.00000
      4      -3.3889      2.00000
      5      -0.8499      2.00000
      6      -0.8168      2.00000
      7      -0.4244      2.00000
      8      -0.3913      2.00000
      9       7.0996      0.00000
     10       8.9234      0.00000
     11      12.5568      0.00000
     12      12.6835      0.00000
     13      13.3463      0.00000
     14      13.3956      0.00000
     15      13.6291      0.00000
     16      13.6618      0.00000
     17      15.7781      0.00000
     18      15.8854      0.00000
     19      21.2983      0.00000
     20      23.7607      0.00000

 k-point    17 :       0.2000    0.0000    0.3333
  band No.  band energies     occupation 
      1     -15.5942      2.00000
      2     -15.5374      2.00000
      3      -3.1734      2.00000
      4      -2.7574      2.00000
      5      -2.6869      2.00000
      6      -2.5977      2.00000
      7      -1.2340      2.00000
      8      -1.2008      2.00000
      9       7.9095      0.00000
     10       9.3137      0.00000
     11      11.7786      0.00000
     12      11.9359      0.00000
     13      12.5478      0.00000
     14      13.0872      0.00000
     15      15.8149      0.00000
     16      15.8490      0.00000
     17      16.4010      0.00000
     18      17.1749      0.00000
     19      21.5324      0.00000
     20      22.4297      0.00000

 k-point    18 :       0.3000    0.0000    0.3333
  band No.  band energies     occupation 
      1     -14.7352      2.00000
      2     -14.6842      2.00000
      3      -4.8897      2.00000
      4      -4.8541      2.00000
      5      -2.0592      2.00000
      6      -2.0258      2.00000
      7      -1.9610      2.00000
      8      -1.5069      2.00000
      9       8.6022      0.00000
     10       8.7756      0.00000
     11      10.1070      0.00000
     12      11.2782      0.00000
     13      12.3764      0.00000
     14      13.0842      0.00000
     15      17.4770      0.00000
     16      18.4825      0.00000
     17      18.7239      0.00000
     18      18.7641      0.00000
     19      20.1586      0.00000
     20      21.1967      0.00000

 k-point    19 :       0.4000    0.0000    0.3333
  band No.  band energies     occupation 
      1     -13.7741      2.00000
      2     -13.7318      2.00000
      3      -6.7546      2.00000
      4      -6.7162      2.00000
      5      -2.6324      2.00000
      6      -2.5990      2.00000
      7      -0.5402      2.00000
      8      -0.2067      2.00000
      9       6.9126      0.00000
     10       7.1948      0.00000
     11      10.5903      0.00000
     12      11.1396      0.00000
     13      12.8207      0.00000
     14      14.0197      0.00000
     15      16.8841      0.00000
     16      17.9264      0.00000
     17      19.4922      0.00000
     18      21.0599      0.00000
     19      21.5382      0.00000
     20      21.5971      0.00000

 k-point    20 :       0.5000    0.0000    0.3333
  band No.  band energies     occupation 
      1     -13.2718      2.00000
      2     -13.2368      2.00000
      3      -7.5731      2.00000
      4      -7.5337      2.00000
      5      -2.8345      2.00000
      6      -2.8010      2.00000
      7       0.3117      2.00000
      8       0.4620      2.00000
      9       5.8833      0.00000
     10       6.2072      0.00000
     11      10.9599      0.00000
     12      11.0402      0.00000
     13      14.0926      0.00000
     14      14.4809      0.00000
     15      15.7487      0.00000
     16      16.7297      0.00000
     17      19.6983      0.00000
     18      21.1393      0.00000
     19      22.8330      0.00000
     20      22.8927      0.00000

 k-point    21 :       0.1000    0.1000    0.3333
  band No.  band energies     occupation 
      1     -15.7770      2.00000
      2     -15.7191      2.00000
      3      -3.4183      2.00000
      4      -2.8992      2.00000
      5      -2.0481      2.00000
      6      -2.0152      2.00000
      7      -1.1333      2.00000
      8      -1.1006      2.00000
      9       7.6744      0.00000
     10       9.2521      0.00000
     11      12.3365      0.00000
     12      12.5904      0.00000
     13      12.8763      0.00000
     14      12.9803      0.00000
     15      14.5877      0.00000
     16      14.6515      0.00000
     17      16.4324      0.00000
     18      17.0366      0.00000
     19      21.5400      0.00000
     20      22.7932      0.00000

 k-point    22 :       0.2000    0.1000    0.3333
  band No.  band energies     occupation 
      1     -15.0640      2.00000
      2     -15.0106      2.00000
      3      -3.9023      2.00000
      4      -3.8695      2.00000
      5      -2.4253      2.00000
      6      -2.1272      2.00000
      7      -2.0951      2.00000
      8      -1.9426      2.00000
      9       8.5811      0.00000
     10       9.2327      0.00000
     11      10.7022      0.00000
     12      11.9314      0.00000
     13      13.0237      0.00000
     14      13.1708      0.00000
     15      15.7757      0.00000
     16      16.1021      0.00000
     17      18.3500      0.00000
     18      19.0602      0.00000
     19      20.4243      0.00000
     20      21.4371      0.00000

 k-point    23 :       0.3000    0.1000    0.3333
  band No.  band energies     occupation 
      1     -14.1282      2.00000
      2     -14.0819      2.00000
      3      -5.8561      2.00000
      4      -5.8200      2.00000
      5      -2.9128      2.00000
      6      -2.8794      2.00000
      7      -1.0848      2.00000
      8      -0.6885      2.00000
      9       7.8106      0.00000
     10       8.0136      0.00000
     11      10.5629      0.00000
     12      11.8917      0.00000
     13      13.0619      0.00000
     14      13.6153      0.00000
     15      16.9448      0.00000
     16      17.8189      0.00000
     17      18.5359      0.00000
     18      19.4589      0.00000
     19      20.7129      0.00000
     20      21.6838      0.00000

 k-point    24 :       0.4000    0.1000    0.3333
  band No.  band energies     occupation 
      1     -13.3155      2.00000
      2     -13.2784      2.00000
      3      -7.2457      2.00000
      4      -7.2071      2.00000
      5      -3.3308      2.00000
      6      -3.2970      2.00000
      7       0.1997      2.00000
      8       0.4217      2.00000
      9       6.2040      0.00000
     10       6.4870      0.00000
     11      11.5401      0.00000
     12      11.8703      0.00000
     13      13.7060      0.00000
     14      14.5245      0.00000
     15      15.9011      0.00000
     16      16.9720      0.00000
     17      18.7129      0.00000
     18      20.2030      0.00000
     19      21.7405      0.00000
     20      22.0804      0.00000

 k-point    25 :       0.2000    0.2000    0.3333
  band No.  band energies     occupation 
      1     -14.2584      2.00000
      2     -14.2107      2.00000
      3      -5.1980      2.00000
      4      -5.1663      2.00000
      5      -3.4287      2.00000
      6      -3.3963      2.00000
      7      -1.2806      2.00000
      8      -0.8649      2.00000
      9       8.2714      0.00000
     10       8.3827      0.00000
     11      10.5934      0.00000
     12      12.5612      0.00000
     13      14.1875      0.00000
     14      14.2983      0.00000
     15      15.6215      0.00000
     16      16.1340      0.00000
     17      17.9311      0.00000
     18      18.8028      0.00000
     19      20.9446      0.00000
     20      21.8374      0.00000

 k-point    26 :       0.3000    0.2000    0.3333
  band No.  band energies     occupation 
      1     -13.3826      2.00000
      2     -13.3428      2.00000
      3      -6.4915      2.00000
      4      -6.4569      2.00000
      5      -4.3318      2.00000
      6      -4.2978      2.00000
      7       0.0501      2.00000
      8       0.3417      2.00000
      9       6.8038      0.00000
     10       6.9454      0.00000
     11      12.0138      0.00000
     12      13.2476      0.00000
     13      14.5453      0.00000
     14      14.6715      0.00000
     15      15.7459      0.00000
     16      16.6282      0.00000
     17      17.5251      0.00000
     18      18.6272      0.00000
     19      20.7207      0.00000
     20      21.7447      0.00000

 k-point    27 :       0.4000    0.2000    0.3333
  band No.  band energies     occupation 
      1     -12.9431      2.00000
      2     -12.9088      2.00000
      3      -7.1154      2.00000
      4      -7.0780      2.00000
      5      -4.6221      2.00000
      6      -4.5872      2.00000
      7       0.8263      2.00000
      8       0.9470      2.00000
      9       5.9784      0.00000
     10       6.1747      0.00000
     11      13.1011      0.00000
     12      13.3092      0.00000
     13      14.4801      0.00000
     14      14.5633      0.00000
     15      15.4779      0.00000
     16      16.4548      0.00000
     17      18.0062      0.00000
     18      19.4696      0.00000
     19      20.6087      0.00000
     20      21.3367      0.00000

 k-point    28 :       0.3000    0.3000    0.3333
  band No.  band energies     occupation 
      1     -12.8067      2.00000
      2     -12.7726      2.00000
      3      -6.6611      2.00000
      4      -6.6286      2.00000
      5      -5.5345      2.00000
      6      -5.5011      2.00000
      7       1.0396      2.00000
      8       1.1644      2.00000
      9       6.0500      0.00000
     10       6.1094      0.00000
     11      13.0952      0.00000
     12      13.5160      0.00000
     13      14.5760      0.00000
     14      15.7103      0.00000
     15      15.8948      0.00000
     16      16.8335      0.00000
     17      18.1325      0.00000
     18      18.9619      0.00000
     19      19.5924      0.00000
     20      21.1408      0.00000


--------------------------------------------------------------------------------------------------------


 soft charge-density along one line, spin component           1
         0         1         2         3         4         5         6         7         8         9
 total charge-density along one line
 
 pseudopotential strength for first ion, spin component:           1
  6.448   9.818   0.000   0.000  -0.000   0.000   0.000  -0.000
  9.818  14.945   0.000   0.000  -0.000   0.000   0.000  -0.000
  0.000   0.000  -2.179   0.000   0.000  -3.706   0.000   0.000
  0.000   0.000   0.000  -2.177   0.000   0.000  -3.699   0.000
 -0.000  -0.000   0.000   0.000  -2.179   0.000   0.000  -3.706
  0.000   0.000  -3.706   0.000   0.000  -6.106   0.000   0.000
  0.000   0.000   0.000  -3.699   0.000   0.000  -6.087   0.000
 -0.000  -0.000   0.000   0.000  -3.706   0.000   0.000  -6.106
 total augmentation occupancy for first ion, spin component:           1
  4.177  -1.213  -0.000   0.000   0.000  -0.000   0.000   0.000
 -1.213   0.381  -0.000   0.000   0.000   0.000   0.000   0.000
 -0.000  -0.000   4.911  -0.000   0.000  -1.479   0.000   0.000
  0.000   0.000  -0.000   1.592   0.000   0.000  -0.389   0.000
  0.000   0.000   0.000   0.000   4.911   0.000   0.000  -1.479
 -0.000   0.000  -1.479   0.000   0.000   0.461   0.000   0.000
  0.000   0.000   0.000  -0.389   0.000   0.000   0.096   0.000
  0.000   0.000   0.000   0.000  -1.479   0.000   0.000   0.461


------------------------ aborting loop because EDIFF is reached ----------------------------------------


 


 total charge     
 
# of ion       s       p       d       tot
------------------------------------------
    1        0.740   1.414   0.000   2.154
    2        0.740   1.414   0.000   2.154
    3        1.221   2.752   0.000   3.973
    4        1.220   2.753   0.000   3.973
--------------------------------------------------
tot          3.921   8.333   0.000  12.254
 
    CHARGE:  cpu time    0.0084: real time    0.0084
    FORLOC:  cpu time    0.0003: real time    0.0003
    FORNL :  cpu time    0.0239: real time    0.0242
    STRESS:  cpu time    0.1871: real time    0.1903
    FORCOR:  cpu time    0.0034: real time    0.0035
    FORHAR:  cpu time    0.0011: real time    0.0011
    MIXING:  cpu time    0.0002: real time    0.0002
    OFIELD:  cpu time    0.0000: real time    0.0001

  FORCE on cell =-STRESS in cart. coord.  units (eV):
  Direction    XX          YY          ZZ          XY          YZ          ZX
  --------------------------------------------------------------------------------------
  Alpha Z    34.59384    34.59384    34.59384
  Ewald     121.29472   121.29472  -664.47690    -0.00000    -0.00000    -0.00000
  Hartree   223.90613   223.90613  -166.31005     0.00000     0.00000     0.00000
  E(xc)     -63.11252   -63.11255   -64.94359    -0.00000     0.00000     0.00000
  Local    -544.34551  -544.34543   600.67037     0.00000     0.00000    -0.00000
  n-local   -30.69676   -29.06429   -29.72359     0.12152    -0.00464     0.01635
  augment     2.20552     2.20540     2.56127    -0.00000     0.00000     0.00000
  Kinetic   258.20651   252.54952   287.74207     2.45339     0.04945    -0.15953
  Fock        0.00000     0.00000     0.00000     0.00000     0.00000     0.00000
  -------------------------------------------------------------------------------------
  Total       0.03963     0.03963     0.11342    -0.00000     0.00000     0.00000
  in kB       1.54333     1.54333     4.41638    -0.00000     0.00000     0.00000
  external pressure =        2.50 kB  Pullay stress =        0.00 kB


 VOLUME and BASIS-vectors are now :
 -----------------------------------------------------------------------------
  energy-cutoff  :      800.00
  volume of cell :       41.15
      direct lattice vectors                 reciprocal lattice vectors
     1.256237318 -2.175866861  0.000000000     0.398013968 -0.229793472  0.000000000
     1.256237318  2.175866861  0.000000000     0.398013968  0.229793472  0.000000000
     0.000000000  0.000000000  7.526459174     0.000000000  0.000000000  0.132864602

  length of vectors
     2.512474636  2.512474636  7.526459174     0.459586943  0.459586943  0.132864602


 FORCES acting on ions
    electron-ion (+dipol)            ewald-force                    non-local-force                 convergence-correction
 -----------------------------------------------------------------------------------------------
   0.105E-12 -.420E-06 0.248E-14   0.466E-14 -.651E-11 -.139E-13   0.000E+00 -.444E-15 0.000E+00   -.633E-15 -.981E-07 -.584E-15
   0.112E-12 -.420E-06 0.849E-13   0.347E-14 0.130E-10 0.139E-13   0.555E-16 -.555E-16 0.000E+00   -.611E-15 -.973E-07 0.216E-14
   -.219E-12 0.138E-06 -.155E-11   -.352E-14 0.651E-11 -.231E-13   -.104E-16 0.000E+00 0.000E+00   -.275E-14 0.876E-07 0.637E-15
   -.122E-12 0.142E-06 -.494E-11   -.271E-14 -.130E-10 0.231E-13   0.000E+00 0.139E-16 0.000E+00   0.229E-14 0.877E-07 0.491E-14
 -----------------------------------------------------------------------------------------------
   -.124E-12 -.560E-06 -.641E-11   0.191E-14 0.202E-14 0.000E+00   0.451E-16 -.486E-15 0.000E+00   -.170E-14 -.202E-07 0.712E-14
 
 
 POSITION                                       TOTAL-FORCE (eV/Angst)
 -----------------------------------------------------------------------------------
      0.00000      0.00000      0.00000        -0.000000     -0.000000      0.000000
      1.25624      0.72529      3.76323        -0.000000     -0.000000      0.000000
      1.25624      0.72529      0.00000         0.000000      0.000000      0.000000
      1.25624     -0.72529      3.76323        -0.000000      0.000000      0.000000
 -----------------------------------------------------------------------------------
    total drift:                               -0.000000     -0.000001     -0.000000


--------------------------------------------------------------------------------------------------------



  FREE ENERGIE OF THE ION-ELECTRON SYSTEM (eV)
  ---------------------------------------------------
  free  energy   TOTEN  =       -35.21235802 eV

  energy  without entropy=      -35.21235802  energy(sigma->0) =      -35.21235802
 


--------------------------------------------------------------------------------------------------------


    POTLOK:  cpu time    0.0083: real time    0.0083


--------------------------------------------------------------------------------------------------------


 writing wavefunctions
     LOOP+:  cpu time    0.7678: real time    0.7842
    4ORBIT:  cpu time    0.0000: real time    0.0000
 


 total charge     
 
# of ion       s       p       d       tot
------------------------------------------
    1        0.740   1.414   0.000   2.154
    2        0.740   1.414   0.000   2.154
    3        1.221   2.752   0.000   3.973
    4        1.220   2.753   0.000   3.973
--------------------------------------------------
tot          3.921   8.333   0.000  12.254
 

 total amount of memory used by VASP MPI-rank0    41129. kBytes
=======================================================================

   base      :      30000. kBytes
   nonl-proj :       7806. kBytes
   fftplans  :       1189. kBytes
   grid      :       1146. kBytes
   one-center:         12. kBytes
   wavefun   :        976. kBytes
 
  
  
 General timing and accounting informations for this job:
 ========================================================
  
                  Total CPU time used (sec):        1.478
                            User time (sec):        1.007
                          System time (sec):        0.472
                         Elapsed time (sec):        1.785
  
                   Maximum memory used (kb):       86284.
                   Average memory used (kb):           0.
  
                          Minor page faults:        11843
                          Major page faults:            2
                 Voluntary context switches:         3757
