 vasp.5.4.4.18Apr17-6-g9f103f2a35 (build May 10 2019 17:57:18) complex          
  
 executed on             LinuxIFC date 2024.07.15  13:12:44
 running on   20 total cores
 distrk:  each k-point on   20 cores,    1 groups
 distr:  one band on NCORES_PER_BAND=   1 cores,   20 groups


--------------------------------------------------------------------------------------------------------


 INCAR:
 POTCAR:    PAW_PBE B 06Sep2000                   
 POTCAR:    PAW_PBE N 08Apr2002                   

 ----------------------------------------------------------------------------- 
|                                                                             |
|           W    W    AA    RRRRR   N    N  II  N    N   GGGG   !!!           |
|           W    W   A  A   R    R  NN   N  II  NN   N  G    G  !!!           |
|           W    W  A    A  R    R  N N  N  II  N N  N  G       !!!           |
|           W WW W  AAAAAA  RRRRR   N  N N  II  N  N N  G  GGG   !            |
|           WW  WW  A    A  R   R   N   NN  II  N   NN  G    G                |
|           W    W  A    A  R    R  N    N  II  N    N   GGGG   !!!           |
|                                                                             |
|      For optimal performance we recommend to set                            |
|        NCORE= 4 - approx SQRT( number of cores)                             |
|      NCORE specifies how many cores store one orbital (NPAR=cpu/NCORE).     |
|      This setting can  greatly improve the performance of VASP for DFT.     |
|      The default,   NCORE=1            might be grossly inefficient         |
|      on modern multi-core architectures or massively parallel machines.     |
|      Do your own testing !!!!                                               |
|      Unfortunately you need to use the default for GW and RPA calculations. |
|      (for HF NCORE is supported but not extensively tested yet)             |
|                                                                             |
 ----------------------------------------------------------------------------- 

 POTCAR:    PAW_PBE B 06Sep2000                   
   SHA256 =  a32ced30f5ae56fd4d10b4325ff17eb3e4e38ee0f4288bc219fb012fddfa6e97 B/
   COPYR  = (c) Copyright 06Sep2000 Georg Kresse                                
   COPYR  = This file is part of the software VASP. Any use, copying, and all ot
   COPYR  = If you do not have a valid VASP license, you may not use, copy or di
   VRHFIN =B: s2p1                                                              
   LEXCH  = PE                                                                  
   EATOM  =    71.1703 eV,    5.2309 Ry                                         
                                                                                
   TITEL  = PAW_PBE B 06Sep2000                                                 
   LULTRA =        F    use ultrasoft PP ?                                      
   IUNSCR =        1    unscreen: 0-lin 1-nonlin 2-no                           
   RPACOR =    1.200    partial core radius                                     
   POMASS =   10.811; ZVAL   =    3.000    mass and valenz                      
   RCORE  =    1.700    outmost cutoff radius                                   
   RWIGS  =    1.710; RWIGS  =    0.905    wigner-seitz radius (au A)           
   ENMAX  =  318.614; ENMIN  =  238.960 eV                                      
   ICORE  =        2    local potential                                         
   LCOR   =        T    correct aug charges                                     
   LPAW   =        T    paw PP                                                  
   EAUG   =  535.514                                                            
   DEXC   =    0.000                                                            
   RMAX   =    1.732    core radius for proj-oper                               
   RAUG   =    1.300    factor for augmentation sphere                          
   RDEP   =    1.757    radius for radial grids                                 
   RDEPT  =    1.436    core radius for aug-charge                              
                                                                                
   Atomic configuration                                                         
    4 entries                                                                   
     n  l   j            E        occ.                                          
     1  0  0.50      -180.5896   2.0000                                         
     2  0  0.50        -9.4431   2.0000                                         
     2  1  0.50        -3.6068   1.0000                                         
     3  2  1.50        -4.0817   0.0000                                         
   Description                                                                  
     l       E           TYP  RCUT    TYP  RCUT                                 
     0     -9.4430752     23  1.500                                             
     0      0.8675899     23  1.500                                             
     1     -3.6067955     23  1.700                                             
     1      6.1086146     23  1.700                                             
     2     -4.0817478      7  1.700                                             
  local pseudopotential read in
  partial core-charges read in
  partial kinetic energy density read in
  atomic valenz-charges read in
  non local Contribution for L=           0  read in
    real space projection operators read in
  non local Contribution for L=           0  read in
    real space projection operators read in
  non local Contribution for L=           1  read in
    real space projection operators read in
  non local Contribution for L=           1  read in
    real space projection operators read in
    PAW grid and wavefunctions read in
 
   number of l-projection  operators is LMAX  =           4
   number of lm-projection operators is LMMAX =           8
 
 POTCAR:    PAW_PBE N 08Apr2002                   
   SHA256 =  e053789ff3a61a86a1b75d8a110fcc91f86041011e7b0817c7c99e4e8a6349d7 N/
   COPYR  = (c) Copyright 08Apr2002 Georg Kresse                                
   COPYR  = This file is part of the software VASP. Any use, copying, and all ot
   COPYR  = If you do not have a valid VASP license, you may not use, copy or di
   VRHFIN =N: s2p3                                                              
   LEXCH  = PE                                                                  
   EATOM  =   264.5486 eV,   19.4438 Ry                                         
                                                                                
   TITEL  = PAW_PBE N 08Apr2002                                                 
   LULTRA =        F    use ultrasoft PP ?                                      
   IUNSCR =        1    unscreen: 0-lin 1-nonlin 2-no                           
   RPACOR =    1.200    partial core radius                                     
   POMASS =   14.001; ZVAL   =    5.000    mass and valenz                      
   RCORE  =    1.500    outmost cutoff radius                                   
   RWIGS  =    1.400; RWIGS  =    0.741    wigner-seitz radius (au A)           
   ENMAX  =  400.000; ENMIN  =  300.000 eV                                      
   ICORE  =        2    local potential                                         
   LCOR   =        T    correct aug charges                                     
   LPAW   =        T    paw PP                                                  
   EAUG   =  627.112                                                            
   DEXC   =    0.000                                                            
   RMAX   =    1.529    core radius for proj-oper                               
   RAUG   =    1.300    factor for augmentation sphere                          
   RDEP   =    1.514    radius for radial grids                                 
   RDEPT  =    1.338    core radius for aug-charge                              
                                                                                
   Atomic configuration                                                         
    4 entries                                                                   
     n  l   j            E        occ.                                          
     1  0  0.50      -384.7179   2.0000                                         
     2  0  0.50       -18.5828   2.0000                                         
     2  1  0.50        -7.0898   3.0000                                         
     3  2  1.50        -6.8029   0.0000                                         
   Description                                                                  
     l       E           TYP  RCUT    TYP  RCUT                                 
     0    -18.5828119     23  1.200                                             
     0    -13.5018863     23  1.200                                             
     1     -7.0897853     23  1.500                                             
     1      9.5240782     23  1.500                                             
     2     -6.8029130      7  1.500                                             
  local pseudopotential read in
  partial core-charges read in
  partial kinetic energy density read in
  atomic valenz-charges read in
  non local Contribution for L=           0  read in
    real space projection operators read in
  non local Contribution for L=           0  read in
    real space projection operators read in
  non local Contribution for L=           1  read in
    real space projection operators read in
  non local Contribution for L=           1  read in
    real space projection operators read in
    PAW grid and wavefunctions read in
 
   number of l-projection  operators is LMAX  =           4
   number of lm-projection operators is LMMAX =           8
 
  PAW_PBE B 06Sep2000                   :
 energy of atom  1       EATOM=  -71.1703
 kinetic energy error for atom=    1.4020 (will be added to EATOM!!)
  PAW_PBE N 08Apr2002                   :
 energy of atom  2       EATOM= -264.5486
 kinetic energy error for atom=   25.1265 (will be added to EATOM!!)
 
 
 POSCAR: B2 N2                                   
  positions in direct lattice
  velocities in cartesian coordinates
 exchange correlation table for  LEXCH =        8
   RHO(1)=    0.500       N(1)  =     2000
   RHO(2)=  100.500       N(2)  =     4000
 


--------------------------------------------------------------------------------------------------------


 ion  position               nearest neighbor table
   1  0.000  0.000  0.000-   3 1.45   3 1.45   3 1.45
   2  0.333  0.667  0.500-   4 1.45   4 1.45   4 1.45
   3  0.333  0.667  0.000-   1 1.45   1 1.45   1 1.45
   4  0.667  0.333  0.500-   2 1.45   2 1.45   2 1.45
 
  LATTYP: Found a hexagonal cell.
 ALAT       =     2.5124746362
 C/A-ratio  =     2.9956358826
  
  Lattice vectors:
  
 A1 = (   1.2562373181,  -2.1758668613,   0.0000000000)
 A2 = (   1.2562373181,   2.1758668613,   0.0000000000)
 A3 = (   0.0000000000,   0.0000000000,   7.5264591742)


Analysis of symmetry for initial positions (statically):
=====================================================================
 Subroutine PRICEL returns:
 Original cell was already a primitive cell.
 

 Routine SETGRP: Setting up the symmetry group for a 
 hexagonal supercell.


 Subroutine GETGRP returns: Found 12 space group operations
 (whereof 12 operations were pure point group operations)
 out of a pool of 24 trial point group operations.


The static configuration has the point symmetry D_3h.


Analysis of symmetry for dynamics (positions and initial velocities):
=====================================================================
 Subroutine PRICEL returns:
 Original cell was already a primitive cell.
 

 Routine SETGRP: Setting up the symmetry group for a 
 hexagonal supercell.


 Subroutine GETGRP returns: Found 12 space group operations
 (whereof 12 operations were pure point group operations)
 out of a pool of 24 trial point group operations.


The dynamic configuration has the point symmetry D_3h.


 Subroutine INISYM returns: Found 12 space group operations
 (whereof 12 operations are pure point group operations),
 and found     1 'primitive' translations

 
 
 KPOINTS: A                                       

Automatic generation of k-mesh.
Space group operators:
 irot       det(A)        alpha          n_x          n_y          n_z        tau_x        tau_y        tau_z
    1     1.000000     0.000000     1.000000     0.000000     0.000000     0.000000     0.000000     0.000000
    2    -1.000000    60.000000     0.000000     0.000000    -1.000000     0.000000     0.000000     0.000000
    3     1.000000   120.000000     0.000000     0.000000    -1.000000     0.000000     0.000000     0.000000
    4    -1.000000   180.000000     0.000000     0.000000     1.000000     0.000000     0.000000     0.000000
    5     1.000000   120.000000     0.000000     0.000000     1.000000     0.000000     0.000000     0.000000
    6    -1.000000    60.000000     0.000000     0.000000     1.000000     0.000000     0.000000     0.000000
    7    -1.000000   180.000000     0.500000    -0.866025     0.000000     0.000000     0.000000     0.000000
    8     1.000000   180.000000     0.000000     1.000000     0.000000     0.000000     0.000000     0.000000
    9    -1.000000   180.000000    -0.500000    -0.866025     0.000000     0.000000     0.000000     0.000000
   10     1.000000   180.000000     0.866025     0.500000     0.000000     0.000000     0.000000     0.000000
   11    -1.000000   180.000000     1.000000     0.000000     0.000000     0.000000     0.000000     0.000000
   12     1.000000   180.000000     0.866025    -0.500000     0.000000     0.000000     0.000000     0.000000
 
 Subroutine IBZKPT returns following result:
 ===========================================
 
 Found     28 irreducible k-points:
 
 Following reciprocal coordinates:
            Coordinates               Weight
  0.000000  0.000000  0.000000      1.000000
  0.100000  0.000000  0.000000      6.000000
  0.200000  0.000000  0.000000      6.000000
  0.300000  0.000000  0.000000      6.000000
  0.400000  0.000000  0.000000      6.000000
  0.500000  0.000000  0.000000      3.000000
  0.100000  0.100000  0.000000      6.000000
  0.200000  0.100000  0.000000     12.000000
  0.300000  0.100000  0.000000     12.000000
  0.400000  0.100000  0.000000     12.000000
  0.200000  0.200000  0.000000      6.000000
  0.300000  0.200000  0.000000     12.000000
  0.400000  0.200000  0.000000      6.000000
  0.300000  0.300000  0.000000      6.000000
  0.000000  0.000000  0.333333      2.000000
  0.100000  0.000000  0.333333     12.000000
  0.200000  0.000000  0.333333     12.000000
  0.300000  0.000000  0.333333     12.000000
  0.400000  0.000000  0.333333     12.000000
  0.500000  0.000000  0.333333      6.000000
  0.100000  0.100000  0.333333     12.000000
  0.200000  0.100000  0.333333     24.000000
  0.300000  0.100000  0.333333     24.000000
  0.400000  0.100000  0.333333     24.000000
  0.200000  0.200000  0.333333     12.000000
  0.300000  0.200000  0.333333     24.000000
  0.400000  0.200000  0.333333     12.000000
  0.300000  0.300000  0.333333     12.000000
 
 Following cartesian coordinates:
            Coordinates               Weight
  0.000000  0.000000  0.000000      1.000000
  0.039801 -0.022979  0.000000      6.000000
  0.079603 -0.045959  0.000000      6.000000
  0.119404 -0.068938  0.000000      6.000000
  0.159206 -0.091917  0.000000      6.000000
  0.199007 -0.114897  0.000000      3.000000
  0.079603  0.000000  0.000000      6.000000
  0.119404 -0.022979  0.000000     12.000000
  0.159206 -0.045959  0.000000     12.000000
  0.199007 -0.068938  0.000000     12.000000
  0.159206  0.000000  0.000000      6.000000
  0.199007 -0.022979  0.000000     12.000000
  0.238808 -0.045959  0.000000      6.000000
  0.238808  0.000000  0.000000      6.000000
  0.000000  0.000000  0.044288      2.000000
  0.039801 -0.022979  0.044288     12.000000
  0.079603 -0.045959  0.044288     12.000000
  0.119404 -0.068938  0.044288     12.000000
  0.159206 -0.091917  0.044288     12.000000
  0.199007 -0.114897  0.044288      6.000000
  0.079603  0.000000  0.044288     12.000000
  0.119404 -0.022979  0.044288     24.000000
  0.159206 -0.045959  0.044288     24.000000
  0.199007 -0.068938  0.044288     24.000000
  0.159206  0.000000  0.044288     12.000000
  0.199007 -0.022979  0.044288     24.000000
  0.238808 -0.045959  0.044288     12.000000
  0.238808  0.000000  0.044288     12.000000
 


--------------------------------------------------------------------------------------------------------




 Dimension of arrays:
   k-points           NKPTS =     28   k-points in BZ     NKDIM =     28   number of bands    NBANDS=     20
   number of dos      NEDOS =    301   number of ions     NIONS =      4
   non local maximal  LDIM  =      4   non local SUM 2l+1 LMDIM =      8
   total plane-waves  NPLWV =    648
   max r-space proj   IRMAX =      1   max aug-charges    IRDMAX=   2164
   dimension x,y,z NGX =     6 NGY =    6 NGZ =   18
   dimension x,y,z NGXF=    12 NGYF=   12 NGZF=   36
   support grid    NGXF=    24 NGYF=   24 NGZF=   72
   ions per type =               2   2
   NGX,Y,Z   is equivalent  to a cutoff of   3.97,  3.97,  3.98 a.u.
   NGXF,Y,Z  is equivalent  to a cutoff of   7.94,  7.94,  7.95 a.u.

 SYSTEM =  BN                                      
 POSCAR =  B2 N2                                   

 Startparameter for this run:
   NWRITE =      2    write-flag & timer
   PREC   = normal    normal or accurate (medium, high low for compatibility)
   ISTART =      0    job   : 0-new  1-cont  2-samecut
   ICHARG =      2    charge: 1-file 2-atom 10-const
   ISPIN  =      1    spin polarized calculation?
   LNONCOLLINEAR =      F non collinear calculations
   LSORBIT =      F    spin-orbit coupling
   INIWAV =      1    electr: 0-lowe 1-rand  2-diag
   LASPH  =      F    aspherical Exc in radial PAW
   METAGGA=      F    non-selfconsistent MetaGGA calc.

 Electronic Relaxation 1
   ENCUT  =  100.0 eV   7.35 Ry    2.71 a.u.   2.05  2.05  6.14*2*pi/ulx,y,z
   ENINI  =  100.0     initial cutoff
   ENAUG  =  627.1 eV  augmentation charge cutoff
   NELM   =     60;   NELMIN=  2; NELMDL= -5     # of ELM steps 
   EDIFF  = 0.1E-03   stopping-criterion for ELM
   LREAL  =      F    real-space projection
   NLSPLINE    = F    spline interpolate recip. space projectors
   LCOMPAT=      F    compatible to vasp.4.4
   GGA_COMPAT  = T    GGA compatible to vasp.4.4-vasp.4.6
   LMAXPAW     = -100 max onsite density
   LMAXMIX     =    2 max onsite mixed and CHGCAR
   VOSKOWN=      0    Vosko Wilk Nusair interpolation
   ROPT   =    0.00000   0.00000
 Ionic relaxation
   EDIFFG = 0.1E-02   stopping-criterion for IOM
   NSW    =      0    number of steps for IOM
   NBLOCK =      1;   KBLOCK =      1    inner block; outer block 
   IBRION =     -1    ionic relax: 0-MD 1-quasi-New 2-CG
   NFREE  =      0    steps in history (QN), initial steepest desc. (CG)
   ISIF   =      2    stress and relaxation
   IWAVPR =     10    prediction:  0-non 1-charg 2-wave 3-comb
   ISYM   =      2    0-nonsym 1-usesym 2-fastsym
   LCORR  =      T    Harris-Foulkes like correction to forces

   POTIM  = 0.5000    time-step for ionic-motion
   TEIN   =    0.0    initial temperature
   TEBEG  =    0.0;   TEEND  =   0.0 temperature during run
   SMASS  =  -3.00    Nose mass-parameter (am)
   estimated Nose-frequenzy (Omega)   =  0.10E-29 period in steps =****** mass=  -0.144E-27a.u.
   SCALEE = 1.0000    scale energy and forces
   NPACO  =    256;   APACO  = 16.0  distance and # of slots for P.C.
   PSTRESS=    0.0 pullay stress

  Mass of Ions in am
   POMASS =  10.81 14.00
  Ionic Valenz
   ZVAL   =   3.00  5.00
  Atomic Wigner-Seitz radii
   RWIGS  =  -1.00 -1.00
  virtual crystal weights 
   VCA    =   1.00  1.00
   NELECT =      16.0000    total number of electrons
   NUPDOWN=      -1.0000    fix difference up-down

 DOS related values:
   EMIN   =  10.00;   EMAX   =-10.00  energy-range for DOS
   EFERMI =   0.00
   ISMEAR =     0;   SIGMA  =   0.05  broadening in eV -4-tet -1-fermi 0-gaus

 Electronic relaxation 2 (details)
   IALGO  =     38    algorithm
   LDIAG  =      T    sub-space diagonalisation (order eigenvalues)
   LSUBROT=      F    optimize rotation matrix (better conditioning)
   TURBO    =      0    0=normal 1=particle mesh
   IRESTART =      0    0=no restart 2=restart with 2 vectors
   NREBOOT  =      0    no. of reboots
   NMIN     =      0    reboot dimension
   EREF     =   0.00    reference energy to select bands
   IMIX   =      4    mixing-type and parameters
     AMIX     =   0.40;   BMIX     =  1.00
     AMIX_MAG =   1.60;   BMIX_MAG =  1.00
     AMIN     =   0.10
     WC   =   100.;   INIMIX=   1;  MIXPRE=   1;  MAXMIX= -45

 Intra band minimization:
   WEIMIN = 0.0000     energy-eigenvalue tresh-hold
   EBREAK =  0.13E-05  absolut break condition
   DEPER  =   0.30     relativ break condition  

   TIME   =   0.40     timestep for ELM

  volume/ion in A,a.u.               =      10.29        69.42
  Fermi-wavevector in a.u.,A,eV,Ry     =   1.194923  2.258077 19.426956  1.427841
  Thomas-Fermi vector in A             =   2.330901
 
 Write flags
   LWAVE        =      T    write WAVECAR
   LDOWNSAMPLE  =      F    k-point downsampling of WAVECAR
   LCHARG       =      T    write CHGCAR
   LVTOT        =      F    write LOCPOT, total local potential
   LVHAR        =      F    write LOCPOT, Hartree potential only
   LELF         =      F    write electronic localiz. function (ELF)
   LORBIT       =     11    0 simple, 1 ext, 2 COOP (PROOUT), +10 PAW based schemes


 Dipole corrections
   LMONO  =      F    monopole corrections only (constant potential shift)
   LDIPOL =      F    correct potential (dipole corrections)
   IDIPOL =      0    1-x, 2-y, 3-z, 4-all directions 
   EPSILON=  1.0000000 bulk dielectric constant

 Exchange correlation treatment:
   GGA     =    --    GGA type
   LEXCH   =     8    internal setting for exchange type
   VOSKOWN=      0    Vosko Wilk Nusair interpolation
   LHFCALC =     F    Hartree Fock is set to
   LHFONE  =     F    Hartree Fock one center treatment
   AEXX    =    0.0000 exact exchange contribution

 Linear response parameters
   LEPSILON=     F    determine dielectric tensor
   LRPA    =     F    only Hartree local field effects (RPA)
   LNABLA  =     F    use nabla operator in PAW spheres
   LVEL    =     F    velocity operator in full k-point grid
   LINTERFAST=   F  fast interpolation
   KINTER  =     0    interpolate to denser k-point grid
   CSHIFT  =0.1000    complex shift for real part using Kramers Kronig
   OMEGAMAX=  -1.0    maximum frequency
   DEG_THRESHOLD= 0.2000000E-02 threshold for treating states as degnerate
   RTIME   =   -0.100 relaxation time in fs
  (WPLASMAI=    0.000 imaginary part of plasma frequency in eV, 0.658/RTIME)
   DFIELD  = 0.0000000 0.0000000 0.0000000 field for delta impulse in time
 
 Orbital magnetization related:
   ORBITALMAG=     F  switch on orbital magnetization
   LCHIMAG   =     F  perturbation theory with respect to B field
   DQ        =  0.001000  dq finite difference perturbation B field
   LLRAUG    =     F  two centre corrections for induced B field



--------------------------------------------------------------------------------------------------------


 Static calculation
 charge density and potential will be updated during run
 non-spin polarized calculation
 Variant of blocked Davidson
 Davidson routine will perform the subspace rotation
 perform sub-space diagonalisation
    after iterative eigenvector-optimisation
 modified Broyden-mixing scheme, WC =      100.0
 initial mixing is a Kerker type mixing with AMIX =  0.4000 and BMIX =      1.0000
 Hartree-type preconditioning will be used
 using additional bands           12
 reciprocal scheme for non local part
 use partial core corrections
 calculate Harris-corrections to forces 
   (improved forces if not selfconsistent)
 use gradient corrections 
 use of overlap-Matrix (Vanderbilt PP)
 Gauss-broadening in eV      SIGMA  =   0.05


--------------------------------------------------------------------------------------------------------


  energy-cutoff  :      100.00
  volume of cell :       41.15
      direct lattice vectors                 reciprocal lattice vectors
     1.256237318 -2.175866861  0.000000000     0.398013968 -0.229793472  0.000000000
     1.256237318  2.175866861  0.000000000     0.398013968  0.229793472  0.000000000
     0.000000000  0.000000000  7.526459174     0.000000000  0.000000000  0.132864602

  length of vectors
     2.512474636  2.512474636  7.526459174     0.459586943  0.459586943  0.132864602


 
 k-points in units of 2pi/SCALE and weight: A                                       
   0.00000000  0.00000000  0.00000000       0.003
   0.03980140 -0.02297935  0.00000000       0.020
   0.07960279 -0.04595869  0.00000000       0.020
   0.11940419 -0.06893804  0.00000000       0.020
   0.15920559 -0.09191739  0.00000000       0.020
   0.19900698 -0.11489674  0.00000000       0.010
   0.07960279  0.00000000  0.00000000       0.020
   0.11940419 -0.02297935  0.00000000       0.040
   0.15920559 -0.04595869  0.00000000       0.040
   0.19900698 -0.06893804  0.00000000       0.040
   0.15920559  0.00000000  0.00000000       0.020
   0.19900698 -0.02297935  0.00000000       0.040
   0.23880838 -0.04595869  0.00000000       0.020
   0.23880838  0.00000000  0.00000000       0.020
   0.00000000  0.00000000  0.04428820       0.007
   0.03980140 -0.02297935  0.04428820       0.040
   0.07960279 -0.04595869  0.04428820       0.040
   0.11940419 -0.06893804  0.04428820       0.040
   0.15920559 -0.09191739  0.04428820       0.040
   0.19900698 -0.11489674  0.04428820       0.020
   0.07960279  0.00000000  0.04428820       0.040
   0.11940419 -0.02297935  0.04428820       0.080
   0.15920559 -0.04595869  0.04428820       0.080
   0.19900698 -0.06893804  0.04428820       0.080
   0.15920559  0.00000000  0.04428820       0.040
   0.19900698 -0.02297935  0.04428820       0.080
   0.23880838 -0.04595869  0.04428820       0.040
   0.23880838  0.00000000  0.04428820       0.040
 
 k-points in reciprocal lattice and weights: A                                       
   0.00000000  0.00000000  0.00000000       0.003
   0.10000000  0.00000000  0.00000000       0.020
   0.20000000  0.00000000  0.00000000       0.020
   0.30000000  0.00000000  0.00000000       0.020
   0.40000000  0.00000000  0.00000000       0.020
   0.50000000  0.00000000  0.00000000       0.010
   0.10000000  0.10000000  0.00000000       0.020
   0.20000000  0.10000000  0.00000000       0.040
   0.30000000  0.10000000  0.00000000       0.040
   0.40000000  0.10000000  0.00000000       0.040
   0.20000000  0.20000000  0.00000000       0.020
   0.30000000  0.20000000  0.00000000       0.040
   0.40000000  0.20000000  0.00000000       0.020
   0.30000000  0.30000000  0.00000000       0.020
   0.00000000  0.00000000  0.33333333       0.007
   0.10000000  0.00000000  0.33333333       0.040
   0.20000000  0.00000000  0.33333333       0.040
   0.30000000  0.00000000  0.33333333       0.040
   0.40000000  0.00000000  0.33333333       0.040
   0.50000000  0.00000000  0.33333333       0.020
   0.10000000  0.10000000  0.33333333       0.040
   0.20000000  0.10000000  0.33333333       0.080
   0.30000000  0.10000000  0.33333333       0.080
   0.40000000  0.10000000  0.33333333       0.080
   0.20000000  0.20000000  0.33333333       0.040
   0.30000000  0.20000000  0.33333333       0.080
   0.40000000  0.20000000  0.33333333       0.040
   0.30000000  0.30000000  0.33333333       0.040
 
 position of ions in fractional coordinates (direct lattice) 
   0.00000000  0.00000000  0.00000000
   0.33333333  0.66666667  0.50000000
   0.33333333  0.66666667  0.00000000
   0.66666667  0.33333333  0.50000000
 
 position of ions in cartesian coordinates  (Angst):
   0.00000000  0.00000000  0.00000000
   1.25623732  0.72528895  3.76322959
   1.25623732  0.72528895  0.00000000
   1.25623732 -0.72528895  3.76322959
 


--------------------------------------------------------------------------------------------------------


 k-point  1 :   0.0000 0.0000 0.0000  plane waves:      97
 k-point  2 :   0.1000 0.0000 0.0000  plane waves:      89
 k-point  3 :   0.2000 0.0000 0.0000  plane waves:      89
 k-point  4 :   0.3000 0.0000 0.0000  plane waves:      92
 k-point  5 :   0.4000 0.0000 0.0000  plane waves:      88
 k-point  6 :   0.5000 0.0000 0.0000  plane waves:      94
 k-point  7 :   0.1000 0.1000 0.0000  plane waves:      90
 k-point  8 :   0.2000 0.1000 0.0000  plane waves:      91
 k-point  9 :   0.3000 0.1000 0.0000  plane waves:      94
 k-point 10 :   0.4000 0.1000 0.0000  plane waves:      96
 k-point 11 :   0.2000 0.2000 0.0000  plane waves:      94
 k-point 12 :   0.3000 0.2000 0.0000  plane waves:      96
 k-point 13 :   0.4000 0.2000 0.0000  plane waves:      98
 k-point 14 :   0.3000 0.3000 0.0000  plane waves:      98
 k-point 15 :   0.0000 0.0000 0.3333  plane waves:      84
 k-point 16 :   0.1000 0.0000 0.3333  plane waves:      84
 k-point 17 :   0.2000 0.0000 0.3333  plane waves:      88
 k-point 18 :   0.3000 0.0000 0.3333  plane waves:      91
 k-point 19 :   0.4000 0.0000 0.3333  plane waves:      93
 k-point 20 :   0.5000 0.0000 0.3333  plane waves:      90
 k-point 21 :   0.1000 0.1000 0.3333  plane waves:      86
 k-point 22 :   0.2000 0.1000 0.3333  plane waves:      91
 k-point 23 :   0.3000 0.1000 0.3333  plane waves:      93
 k-point 24 :   0.4000 0.1000 0.3333  plane waves:      97
 k-point 25 :   0.2000 0.2000 0.3333  plane waves:      96
 k-point 26 :   0.3000 0.2000 0.3333  plane waves:      99
 k-point 27 :   0.4000 0.2000 0.3333  plane waves:      99
 k-point 28 :   0.3000 0.3000 0.3333  plane waves:     103

 maximum and minimum number of plane-waves per node :       103       84

 maximum number of plane-waves:       103
 maximum index in each direction: 
   IXMAX=    2   IYMAX=    2   IZMAX=    6
   IXMIN=   -2   IYMIN=   -2   IZMIN=   -6


 serial   3D FFT for wavefunctions
 parallel 3D FFT for charge:
    minimum data exchange during FFTs selected (reduces bandwidth)


 total amount of memory used by VASP MPI-rank0    30632. kBytes
=======================================================================

   base      :      30000. kBytes
   nonl-proj :        437. kBytes
   fftplans  :         61. kBytes
   grid      :         51. kBytes
   one-center:         12. kBytes
   wavefun   :         71. kBytes
 
     INWAV:  cpu time    0.0000: real time    0.0001
 Broyden mixing: mesh for mixing (old mesh)
   NGX =  5   NGY =  5   NGZ = 13
  (NGX  = 12   NGY  = 12   NGZ  = 36)
  gives a total of    325 points

 initial charge density was supplied:
 charge density of overlapping atoms calculated
 number of electron      16.0000000 magnetization 
 keeping initial charge density in first step


--------------------------------------------------------------------------------------------------------


 Maximum index for augmentation-charges          314 (set IRDMAX)


--------------------------------------------------------------------------------------------------------


 First call to EWALD:  gamma=   0.513
 Maximum number of real-space cells 4x 4x 2
 Maximum number of reciprocal cells 2x 2x 5

    FEWALD:  cpu time    0.0018: real time    0.0018


--------------------------------------- Iteration      1(   1)  ---------------------------------------


    POTLOK:  cpu time    0.0025: real time    0.0033
    SETDIJ:  cpu time    0.0013: real time    0.0014
     EDDAV:  cpu time    0.1277: real time    0.1290
       DOS:  cpu time    0.0005: real time    0.0006
    --------------------------------------------
      LOOP:  cpu time    0.1320: real time    0.1343

 eigenvalue-minimisations  :  1560
 total energy-change (2. order) :-0.3933900E+02  (-0.3803684E+03)
 number of electron      16.0000000 magnetization 
 augmentation part       16.0000000 magnetization 

 Free energy of the ion-electron system (eV)
  ---------------------------------------------------
  alpha Z        PSCENC =        34.59384069
  Ewald energy   TEWEN  =      -421.88703305
  -Hartree energ DENC   =      -233.95493880
  -exchange      EXHF   =         0.00000000
  -V(xc)+E(xc)   XCENC  =        53.96734635
  PAW double counting   =       496.86519423     -497.53652252
  entropy T*S    EENTRO =        -0.00000000
  eigenvalues    EBANDS =       -89.76781484
  atomic energy  EATOM  =       618.38092306
  Solvation  Ediel_sol  =         0.00000000
  ---------------------------------------------------
  free energy    TOTEN  =       -39.33900486 eV

  energy without entropy =      -39.33900486  energy(sigma->0) =      -39.33900486


--------------------------------------------------------------------------------------------------------




--------------------------------------- Iteration      1(   2)  ---------------------------------------


     EDDAV:  cpu time    0.0760: real time    0.0778
       DOS:  cpu time    0.0002: real time    0.0002
    --------------------------------------------
      LOOP:  cpu time    0.0762: real time    0.0780

 eigenvalue-minimisations  :  1200
 total energy-change (2. order) :-0.9173286E+00  (-0.9173286E+00)
 number of electron      16.0000000 magnetization 
 augmentation part       16.0000000 magnetization 

 Free energy of the ion-electron system (eV)
  ---------------------------------------------------
  alpha Z        PSCENC =        34.59384069
  Ewald energy   TEWEN  =      -421.88703305
  -Hartree energ DENC   =      -233.95493880
  -exchange      EXHF   =         0.00000000
  -V(xc)+E(xc)   XCENC  =        53.96734635
  PAW double counting   =       496.86519423     -497.53652252
  entropy T*S    EENTRO =        -0.00000000
  eigenvalues    EBANDS =       -90.68514340
  atomic energy  EATOM  =       618.38092306
  Solvation  Ediel_sol  =         0.00000000
  ---------------------------------------------------
  free energy    TOTEN  =       -40.25633342 eV

  energy without entropy =      -40.25633342  energy(sigma->0) =      -40.25633342


--------------------------------------------------------------------------------------------------------




--------------------------------------- Iteration      1(   3)  ---------------------------------------


Error EDDDAV: Call to ZHEGV failed. Returncode =   1 2  40
