<?xml version="1.0" encoding="ISO-8859-1"?>
<modeling>
 <generator>
  <i name="program" type="string">vasp </i>
  <i name="version" type="string">5.4.4.18Apr17-6-g9f103f2a35  </i>
  <i name="subversion" type="string">(build May 10 2019 17:57:18) complex            parallel </i>
  <i name="platform" type="string">LinuxIFC </i>
  <i name="date" type="string">2024 07 15 </i>
  <i name="time" type="string">13:13:05 </i>
 </generator>
 <incar>
  <i type="string" name="SYSTEM"> BN</i>
  <i type="string" name="PREC">normal</i>
  <i type="logical" name="ADDGRID"> T  </i>
  <i type="int" name="ISPIN">     1</i>
  <i name="EDIFF">      0.00010000</i>
  <i name="ENCUT">    800.00000000</i>
  <i type="logical" name="LREAL"> F  </i>
  <i type="logical" name="LPLANE"> T  </i>
  <i type="int" name="ISMEAR">     0</i>
  <i name="SIGMA">      0.05000000</i>
  <i type="int" name="NWRITE">     2</i>
  <i type="int" name="LORBIT">    11</i>
  <v type="int" name="KPOINT_BSE">    -1     0     0     0</v>
 </incar>
 <structure name="primitive_cell" >
  <crystal>
   <varray name="basis" >
    <v>       1.25623732      -2.17586686       0.00000000 </v>
    <v>       1.25623732       2.17586686       0.00000000 </v>
    <v>       0.00000000       0.00000000       7.52645917 </v>
   </varray>
   <i name="volume">     41.14572454 </i>
   <varray name="rec_basis" >
    <v>       0.39801397      -0.22979347       0.00000000 </v>
    <v>       0.39801397       0.22979347       0.00000000 </v>
    <v>       0.00000000       0.00000000       0.13286460 </v>
   </varray>
  </crystal>
  <varray name="positions" >
   <v>       0.00000000       0.00000000       0.00000000 </v>
   <v>       0.33333333      -0.33333333       0.00000000 </v>
   <v>       0.33333333      -0.33333333      -0.50000000 </v>
   <v>      -0.33333333       0.33333333      -0.50000000 </v>
  </varray>
 </structure>
 <varray name="primitive_index" >
  <v type="int" >        1 </v>
  <v type="int" >        3 </v>
  <v type="int" >        2 </v>
  <v type="int" >        4 </v>
 </varray>
 <kpoints>
  <generation param="Gamma">
   <v type="int" name="divisions">      10       10        3 </v>
   <v name="usershift">      0.00000000       0.00000000       0.00000000 </v>
   <v name="genvec1">      0.10000000       0.00000000       0.00000000 </v>
   <v name="genvec2">      0.00000000       0.10000000       0.00000000 </v>
   <v name="genvec3">      0.00000000       0.00000000       0.33333333 </v>
   <v name="shift">      0.00000000       0.00000000       0.00000000 </v>
  </generation>
  <varray name="kpointlist" >
   <v>       0.00000000       0.00000000       0.00000000 </v>
   <v>       0.10000000       0.00000000       0.00000000 </v>
   <v>       0.20000000       0.00000000       0.00000000 </v>
   <v>       0.30000000       0.00000000       0.00000000 </v>
   <v>       0.40000000       0.00000000       0.00000000 </v>
   <v>       0.50000000       0.00000000       0.00000000 </v>
   <v>       0.10000000       0.10000000       0.00000000 </v>
   <v>       0.20000000       0.10000000       0.00000000 </v>
   <v>       0.30000000       0.10000000       0.00000000 </v>
   <v>       0.40000000       0.10000000       0.00000000 </v>
   <v>       0.20000000       0.20000000       0.00000000 </v>
   <v>       0.30000000       0.20000000       0.00000000 </v>
   <v>       0.40000000       0.20000000       0.00000000 </v>
   <v>       0.30000000       0.30000000       0.00000000 </v>
   <v>       0.00000000       0.00000000       0.33333333 </v>
   <v>       0.10000000       0.00000000       0.33333333 </v>
   <v>       0.20000000       0.00000000       0.33333333 </v>
   <v>       0.30000000       0.00000000       0.33333333 </v>
   <v>       0.40000000       0.00000000       0.33333333 </v>
   <v>       0.50000000       0.00000000       0.33333333 </v>
   <v>       0.10000000       0.10000000       0.33333333 </v>
   <v>       0.20000000       0.10000000       0.33333333 </v>
   <v>       0.30000000       0.10000000       0.33333333 </v>
   <v>       0.40000000       0.10000000       0.33333333 </v>
   <v>       0.20000000       0.20000000       0.33333333 </v>
   <v>       0.30000000       0.20000000       0.33333333 </v>
   <v>       0.40000000       0.20000000       0.33333333 </v>
   <v>       0.30000000       0.30000000       0.33333333 </v>
  </varray>
  <varray name="weights" >
   <v>       0.00333333 </v>
   <v>       0.02000000 </v>
   <v>       0.02000000 </v>
   <v>       0.02000000 </v>
   <v>       0.02000000 </v>
   <v>       0.01000000 </v>
   <v>       0.02000000 </v>
   <v>       0.04000000 </v>
   <v>       0.04000000 </v>
   <v>       0.04000000 </v>
   <v>       0.02000000 </v>
   <v>       0.04000000 </v>
   <v>       0.02000000 </v>
   <v>       0.02000000 </v>
   <v>       0.00666667 </v>
   <v>       0.04000000 </v>
   <v>       0.04000000 </v>
   <v>       0.04000000 </v>
   <v>       0.04000000 </v>
   <v>       0.02000000 </v>
   <v>       0.04000000 </v>
   <v>       0.08000000 </v>
   <v>       0.08000000 </v>
   <v>       0.08000000 </v>
   <v>       0.04000000 </v>
   <v>       0.08000000 </v>
   <v>       0.04000000 </v>
   <v>       0.04000000 </v>
  </varray>
 </kpoints>
 <parameters>
  <separator name="general" >
   <i type="string" name="SYSTEM">BN</i>
   <i type="logical" name="LCOMPAT"> F  </i>
  </separator>
  <separator name="electronic" >
   <i type="string" name="PREC">normal</i>
   <i name="ENMAX">    800.00000000</i>
   <i name="ENAUG">    627.11200000</i>
   <i name="EDIFF">      0.00010000</i>
   <i type="int" name="IALGO">    38</i>
   <i type="int" name="IWAVPR">    10</i>
   <i type="int" name="NBANDS">    20</i>
   <i name="NELECT">     16.00000000</i>
   <i type="int" name="TURBO">     0</i>
   <i type="int" name="IRESTART">     0</i>
   <i type="int" name="NREBOOT">     0</i>
   <i type="int" name="NMIN">     0</i>
   <i name="EREF">      0.00000000</i>
   <separator name="electronic smearing" >
    <i type="int" name="ISMEAR">     0</i>
    <i name="SIGMA">      0.05000000</i>
    <i name="KSPACING">      0.50000000</i>
    <i type="logical" name="KGAMMA"> T  </i>
   </separator>
   <separator name="electronic projectors" >
    <i type="logical" name="LREAL"> F  </i>
    <v name="ROPT">      0.00000000      0.00000000</v>
    <i type="int" name="LMAXPAW">  -100</i>
    <i type="int" name="LMAXMIX">     2</i>
    <i type="logical" name="NLSPLINE"> F  </i>
   </separator>
   <separator name="electronic startup" >
    <i type="int" name="ISTART">     1</i>
    <i type="int" name="ICHARG">     0</i>
    <i type="int" name="INIWAV">     1</i>
   </separator>
   <separator name="electronic spin" >
    <i type="int" name="ISPIN">     1</i>
    <i type="logical" name="LNONCOLLINEAR"> F  </i>
    <v name="MAGMOM">      1.00000000      1.00000000      1.00000000      1.00000000</v>
    <i name="NUPDOWN">     -1.00000000</i>
    <i type="logical" name="LSORBIT"> F  </i>
    <v name="SAXIS">      0.00000000      0.00000000      1.00000000</v>
    <i type="logical" name="LSPIRAL"> F  </i>
    <v name="QSPIRAL">      0.00000000      0.00000000      0.00000000</v>
    <i type="logical" name="LZEROZ"> F  </i>
   </separator>
   <separator name="electronic exchange-correlation" >
    <i type="logical" name="LASPH"> F  </i>
    <i type="logical" name="LMETAGGA"> F  </i>
   </separator>
   <separator name="electronic convergence" >
    <i type="int" name="NELM">    60</i>
    <i type="int" name="NELMDL">     0</i>
    <i type="int" name="NELMIN">     2</i>
    <i name="ENINI">    800.00000000</i>
    <separator name="electronic convergence detail" >
     <i type="logical" name="LDIAG"> T  </i>
     <i type="logical" name="LSUBROT"> F  </i>
     <i name="WEIMIN">      0.00000000</i>
     <i name="EBREAK">      0.00000125</i>
     <i name="DEPER">      0.30000000</i>
     <i type="int" name="NRMM">     4</i>
     <i name="TIME">      0.40000000</i>
    </separator>
   </separator>
   <separator name="electronic mixer" >
    <i name="AMIX">      0.40000000</i>
    <i name="BMIX">      1.00000000</i>
    <i name="AMIN">      0.10000000</i>
    <i name="AMIX_MAG">      1.60000000</i>
    <i name="BMIX_MAG">      1.00000000</i>
    <separator name="electronic mixer details" >
     <i type="int" name="IMIX">     4</i>
     <i type="logical" name="MIXFIRST"> F  </i>
     <i type="int" name="MAXMIX">   -45</i>
     <i name="WC">    100.00000000</i>
     <i type="int" name="INIMIX">     1</i>
     <i type="int" name="MIXPRE">     1</i>
     <i type="int" name="MREMOVE">     5</i>
    </separator>
   </separator>
   <separator name="electronic dipolcorrection" >
    <i type="logical" name="LDIPOL"> F  </i>
    <i type="logical" name="LMONO"> F  </i>
    <i type="int" name="IDIPOL">     0</i>
    <i name="EPSILON">      1.00000000</i>
    <v name="DIPOL">   -100.00000000   -100.00000000   -100.00000000</v>
    <i name="EFIELD">      0.00000000</i>
   </separator>
  </separator>
  <separator name="grids" >
   <i type="int" name="NGX">    18</i>
   <i type="int" name="NGY">    18</i>
   <i type="int" name="NGZ">    54</i>
   <i type="int" name="NGXF">    36</i>
   <i type="int" name="NGYF">    36</i>
   <i type="int" name="NGZF">   108</i>
   <i type="logical" name="ADDGRID"> T  </i>
  </separator>
  <separator name="ionic" >
   <i type="int" name="NSW">     0</i>
   <i type="int" name="IBRION">    -1</i>
   <i type="int" name="MDALGO">     0</i>
   <i type="int" name="ISIF">     2</i>
   <i name="PSTRESS">      0.00000000</i>
   <i name="EDIFFG">      0.00100000</i>
   <i type="int" name="NFREE">     0</i>
   <i name="POTIM">      0.50000000</i>
   <i name="SMASS">     -3.00000000</i>
   <i name="SCALEE">      1.00000000</i>
  </separator>
  <separator name="ionic md" >
   <i name="TEBEG">      0.00010000</i>
   <i name="TEEND">      0.00010000</i>
   <i type="int" name="NBLOCK">     1</i>
   <i type="int" name="KBLOCK">     1</i>
   <i type="int" name="NPACO">   256</i>
   <i name="APACO">     16.00000000</i>
  </separator>
  <separator name="symmetry" >
   <i type="int" name="ISYM">     2</i>
   <i name="SYMPREC">      0.00001000</i>
  </separator>
  <separator name="dos" >
   <i type="int" name="LORBIT">    11</i>
   <v name="RWIGS">     -1.00000000     -1.00000000</v>
   <i type="int" name="NEDOS">   301</i>
   <i name="EMIN">     10.00000000</i>
   <i name="EMAX">    -10.00000000</i>
   <i name="EFERMI">      0.00000000</i>
  </separator>
  <separator name="writing" >
   <i type="int" name="NWRITE">     2</i>
   <i type="logical" name="LWAVE"> T  </i>
   <i type="logical" name="LDOWNSAMPLE"> F  </i>
   <i type="logical" name="LCHARG"> T  </i>
   <i type="logical" name="LPARD"> F  </i>
   <i type="logical" name="LVTOT"> F  </i>
   <i type="logical" name="LVHAR"> F  </i>
   <i type="logical" name="LELF"> F  </i>
   <i type="logical" name="LOPTICS"> F  </i>
   <v name="STM">      0.00000000      0.00000000      0.00000000      0.00000000      0.00000000      0.00000000      0.00000000</v>
  </separator>
  <separator name="performance" >
   <i type="int" name="NPAR">    20</i>
   <i type="int" name="NSIM">     4</i>
   <i type="int" name="NBLK">    -1</i>
   <i type="logical" name="LPLANE"> T  </i>
   <i type="logical" name="LSCALAPACK"> T  </i>
   <i type="logical" name="LSCAAWARE"> F  </i>
   <i type="logical" name="LSCALU"> F  </i>
   <i type="logical" name="LASYNC"> F  </i>
   <i type="logical" name="LORBITALREAL"> F  </i>
  </separator>
  <separator name="miscellaneous" >
   <i type="int" name="IDIOT">     3</i>
   <i type="int" name="ISPECIAL">     0</i>
   <i type="logical" name="LMUSIC"> F  </i>
   <v name="POMASS">     10.81100000     14.00100000</v>
   <v name="DARWINR">      0.00000000      0.00000000</v>
   <v name="DARWINV">      1.00000000      1.00000000</v>
   <i type="logical" name="LCORR"> T  </i>
  </separator>
  <i type="logical" name="GGA_COMPAT"> T  </i>
  <i type="logical" name="LBERRY"> F  </i>
  <i type="int" name="ICORELEVEL">     0</i>
  <i type="logical" name="LDAU"> F  </i>
  <i type="int" name="I_CONSTRAINED_M">     0</i>
  <separator name="electronic exchange-correlation" >
   <i type="string" name="GGA">--</i>
   <i type="int" name="VOSKOWN">     0</i>
   <i type="logical" name="LHFCALC"> F  </i>
   <i type="string" name="PRECFOCK"></i>
   <i type="logical" name="LSYMGRAD"> F  </i>
   <i type="logical" name="LHFONE"> F  </i>
   <i type="logical" name="LRHFCALC"> F  </i>
   <i type="logical" name="LTHOMAS"> F  </i>
   <i type="logical" name="LMODELHF"> F  </i>
   <i name="ENCUT4O">     -1.00000000</i>
   <i type="int" name="EXXOEP">     0</i>
   <i type="int" name="FOURORBIT">     0</i>
   <i name="AEXX">      0.00000000</i>
   <i name="HFALPHA">      0.00000000</i>
   <i name="MCALPHA">      0.00000000</i>
   <i name="ALDAX">      1.00000000</i>
   <i name="AGGAX">      1.00000000</i>
   <i name="ALDAC">      1.00000000</i>
   <i name="AGGAC">      1.00000000</i>
   <i type="int" name="NKREDX">     1</i>
   <i type="int" name="NKREDY">     1</i>
   <i type="int" name="NKREDZ">     1</i>
   <i type="logical" name="SHIFTRED"> F  </i>
   <i type="logical" name="ODDONLY"> F  </i>
   <i type="logical" name="EVENONLY"> F  </i>
   <i type="int" name="LMAXFOCK">     0</i>
   <i type="int" name="NMAXFOCKAE">     0</i>
   <i type="logical" name="LFOCKAEDFT"> F  </i>
   <i name="HFSCREEN">      0.00000000</i>
   <i name="HFSCREENC">      0.00000000</i>
   <i type="int" name="NBANDSGWLOW">     0</i>
  </separator>
  <separator name="vdW DFT" >
   <i type="logical" name="LUSE_VDW"> F  </i>
   <i name="Zab_VDW">     -0.84910000</i>
   <i name="PARAM1">      0.12340000</i>
   <i name="PARAM2">      1.00000000</i>
   <i name="PARAM3">      0.00000000</i>
  </separator>
  <separator name="model GW" >
   <i type="int" name="MODEL_GW">     0</i>
   <i name="MODEL_EPS0">      6.17185868</i>
   <i name="MODEL_ALPHA">      1.00000000</i>
  </separator>
  <separator name="linear response parameters" >
   <i type="logical" name="LEPSILON"> F  </i>
   <i type="logical" name="LRPA"> F  </i>
   <i type="logical" name="LNABLA"> F  </i>
   <i type="logical" name="LVEL"> F  </i>
   <i type="int" name="KINTER">     0</i>
   <i name="CSHIFT">      0.10000000</i>
   <i name="OMEGAMAX">     -1.00000000</i>
   <i name="DEG_THRESHOLD">      0.00200000</i>
   <i name="RTIME">     -0.10000000</i>
   <i name="WPLASMAI">      0.00000000</i>
   <v name="DFIELD">      0.00000000      0.00000000      0.00000000</v>
   <v name="WPLASMA">      0.00000000      0.00000000      0.00000000      0.00000000      0.00000000      0.00000000      0.00000000      0.00000000      0.00000000</v>
  </separator>
  <separator name="orbital magnetization" >
   <i type="logical" name="NUCIND"> F  </i>
   <v name="MAGPOS">      0.00000000      0.00000000      0.00000000</v>
   <i type="logical" name="LNICSALL"> T  </i>
   <i type="logical" name="ORBITALMAG"> F  </i>
   <i type="logical" name="LMAGBLOCH"> F  </i>
   <i type="logical" name="LCHIMAG"> F  </i>
   <i type="logical" name="LGAUGE"> T  </i>
   <i type="int" name="MAGATOM">     0</i>
   <v name="MAGDIPOL">      0.00000000      0.00000000      0.00000000</v>
   <v name="AVECCONST">      0.00000000      0.00000000      0.00000000</v>
  </separator>
  <separator name="response functions" >
   <i type="logical" name="LADDER"> F  </i>
   <i type="logical" name="LRPAFORCE"> F  </i>
   <i type="logical" name="LFXC"> F  </i>
   <i type="logical" name="LHARTREE"> T  </i>
   <i type="int" name="IBSE">     0</i>
   <v type="int" name="KPOINT">    -1     0     0     0</v>
   <i type="logical" name="LTCTE"> F  </i>
   <i type="logical" name="LTETE"> F  </i>
   <i type="logical" name="LTRIPLET"> F  </i>
   <i type="logical" name="LFXCEPS"> F  </i>
   <i type="logical" name="LFXHEG"> F  </i>
   <i type="int" name="NATURALO">     2</i>
   <i type="logical" name="L2ORDER"> F  </i>
   <i type="logical" name="LMP2LT"> F  </i>
   <i type="logical" name="LUSEW"> F  </i>
   <i name="ENCUTGW">     -2.00000000</i>
   <i name="ENCUTGWSOFT">     -2.00000000</i>
   <i name="ENCUTLF">     -1.00000000</i>
   <i type="int" name="LMAXMP2">    -1</i>
   <i name="SCISSOR">      0.00000000</i>
   <i type="int" name="NOMEGA">     0</i>
   <i type="int" name="NOMEGAR">     0</i>
   <i type="int" name="NBANDSGW">    -1</i>
   <i type="int" name="NBANDSO">    -1</i>
   <i type="int" name="NBANDSV">    -1</i>
   <i type="int" name="NELM">     1</i>
   <i type="int" name="NELMHF">     1</i>
   <i type="int" name="DIM">     3</i>
   <i type="int" name="ANTIRES">     0</i>
   <i name="OMEGAMAX">    -30.00000000</i>
   <i name="OMEGAMIN">    -30.00000000</i>
   <i name="OMEGATL">   -200.00000000</i>
   <i type="int" name="OMEGAGRID">   140</i>
   <i name="CSHIFT">     -0.10000000</i>
   <i type="logical" name="SELFENERGY"> F  </i>
   <i type="logical" name="LSPECTRAL"> F  </i>
   <i type="logical" name="LSPECTRALGW"> F  </i>
   <i type="logical" name="LSINGLES"> F  </i>
   <i type="logical" name="LFERMIGW"> F  </i>
   <i type="logical" name="ODDONLYGW"> F  </i>
   <i type="logical" name="EVENONLYGW"> F  </i>
   <i type="int" name="NKREDLFX">     1</i>
   <i type="int" name="NKREDLFY">     1</i>
   <i type="int" name="NKREDLFZ">     1</i>
   <i type="int" name="MAXMEM">  2800</i>
   <i type="int" name="TELESCOPE">     0</i>
   <i type="int" name="TAUPAR">     1</i>
   <i type="int" name="OMEGAPAR">    -1</i>
   <i name="LAMBDA">      1.00000000</i>
  </separator>
  <separator name="External order field" >
   <i name="OFIELD_KAPPA">      0.00000000</i>
   <v name="OFIELD_K">      0.00000000      0.00000000      0.00000000</v>
   <i name="OFIELD_Q6_NEAR">      0.00000000</i>
   <i name="OFIELD_Q6_FAR">      0.00000000</i>
   <i name="OFIELD_A">      0.00000000</i>
  </separator>
 </parameters>
 <atominfo>
  <atoms>       4 </atoms>
  <types>       2 </types>
  <array name="atoms" >
   <dimension dim="1">ion</dimension>
   <field type="string">element</field>
   <field type="int">atomtype</field>
   <set>
    <rc><c>B </c><c>   1</c></rc>
    <rc><c>B </c><c>   1</c></rc>
    <rc><c>N </c><c>   2</c></rc>
    <rc><c>N </c><c>   2</c></rc>
   </set>
  </array>
  <array name="atomtypes" >
   <dimension dim="1">type</dimension>
   <field type="int">atomspertype</field>
   <field type="string">element</field>
   <field>mass</field>
   <field>valence</field>
   <field type="string">pseudopotential</field>
   <set>
    <rc><c>   2</c><c>B </c><c>     10.81100000</c><c>      3.00000000</c><c>  PAW_PBE B 06Sep2000                   </c></rc>
    <rc><c>   2</c><c>N </c><c>     14.00100000</c><c>      5.00000000</c><c>  PAW_PBE N 08Apr2002                   </c></rc>
   </set>
  </array>
 </atominfo>
 <structure name="initialpos" >
  <crystal>
   <varray name="basis" >
    <v>       1.25623732      -2.17586686       0.00000000 </v>
    <v>       1.25623732       2.17586686       0.00000000 </v>
    <v>       0.00000000       0.00000000       7.52645917 </v>
   </varray>
   <i name="volume">     41.14572454 </i>
   <varray name="rec_basis" >
    <v>       0.39801397      -0.22979347       0.00000000 </v>
    <v>       0.39801397       0.22979347       0.00000000 </v>
    <v>       0.00000000       0.00000000       0.13286460 </v>
   </varray>
  </crystal>
  <varray name="positions" >
   <v>       0.00000000       0.00000000       0.00000000 </v>
   <v>       0.33333333       0.66666667       0.50000000 </v>
   <v>       0.33333333       0.66666667       0.00000000 </v>
   <v>       0.66666667       0.33333333       0.50000000 </v>
  </varray>
 </structure>
 <calculation>
  <scstep>
   <time name="dav">    0.21    0.22</time>
   <time name="total">    0.24    0.24</time>
   <energy>
    <i name="alphaZ">     34.59384069 </i>
    <i name="ewald">   -421.88703305 </i>
    <i name="hartreedc">   -281.50518576 </i>
    <i name="XCdc">     56.67659785 </i>
    <i name="pawpsdc">   1808.60224826 </i>
    <i name="pawaedc">  -1810.09002991 </i>
    <i name="eentropy">     -0.00000000 </i>
    <i name="bandstr">    -93.03426120 </i>
    <i name="atom">    671.43151903 </i>
    <i name="e_fr_energy">    -35.21230408 </i>
    <i name="e_wo_entrp">    -35.21230408 </i>
    <i name="e_0_energy">    -35.21230408 </i>
   </energy>
  </scstep>
  <scstep>
   <time name="dav">    0.11    0.11</time>
   <time name="total">    0.12    0.12</time>
   <energy>
    <i name="alphaZ">     34.59384069 </i>
    <i name="ewald">   -421.88703305 </i>
    <i name="hartreedc">   -281.51442780 </i>
    <i name="XCdc">     56.67710839 </i>
    <i name="pawpsdc">   1804.03703929 </i>
    <i name="pawaedc">  -1805.52947854 </i>
    <i name="eentropy">     -0.00000000 </i>
    <i name="bandstr">    -93.02092605 </i>
    <i name="atom">    671.43151903 </i>
    <i name="e_fr_energy">    -35.21235802 </i>
    <i name="e_wo_entrp">    -35.21235802 </i>
    <i name="e_0_energy">    -35.21235802 </i>
   </energy>
  </scstep>
  <structure>
   <crystal>
    <varray name="basis" >
     <v>       1.25623732      -2.17586686       0.00000000 </v>
     <v>       1.25623732       2.17586686       0.00000000 </v>
     <v>       0.00000000       0.00000000       7.52645917 </v>
    </varray>
    <i name="volume">     41.14572454 </i>
    <varray name="rec_basis" >
     <v>       0.39801397      -0.22979347       0.00000000 </v>
     <v>       0.39801397       0.22979347       0.00000000 </v>
     <v>       0.00000000       0.00000000       0.13286460 </v>
    </varray>
   </crystal>
   <varray name="positions" >
    <v>       0.00000000       0.00000000       0.00000000 </v>
    <v>       0.33333333       0.66666667       0.50000000 </v>
    <v>       0.33333333       0.66666667       0.00000000 </v>
    <v>       0.66666667       0.33333333       0.50000000 </v>
   </varray>
  </structure>
  <varray name="forces" >
   <v>      -0.00000000      -0.00000000       0.00000000 </v>
   <v>      -0.00000000      -0.00000000       0.00000000 </v>
   <v>       0.00000000       0.00000000       0.00000000 </v>
   <v>      -0.00000000       0.00000000       0.00000000 </v>
  </varray>
  <varray name="stress" >
   <v>       1.54332714      -0.00000000       0.00000000 </v>
   <v>      -0.00000000       1.54332714       0.00000000 </v>
   <v>      -0.00000000       0.00000000       4.41638465 </v>
  </varray>
  <energy>
   <i name="e_fr_energy">    -35.21235802 </i>
   <i name="e_wo_entrp">    -35.21235802 </i>
   <i name="e_0_energy">     -0.00000000 </i>
  </energy>
  <time name="totalsc">    0.77    0.78</time>
  <eigenvalues>
   <array>
    <dimension dim="1">band</dimension>
    <dimension dim="2">kpoint</dimension>
    <dimension dim="3">spin</dimension>
    <field>eigene</field>
    <field>occ</field>
    <set>
     <set comment="spin 1">
      <set comment="kpoint 1">
       <r>  -16.3670    1.0000 </r>
       <r>  -16.2570    1.0000 </r>
       <r>   -4.4330    1.0000 </r>
       <r>   -3.3266    1.0000 </r>
       <r>   -0.0650    1.0000 </r>
       <r>   -0.0650    1.0000 </r>
       <r>   -0.0317    1.0000 </r>
       <r>   -0.0317    1.0000 </r>
       <r>    5.9571    0.0000 </r>
       <r>   10.1159    0.0000 </r>
       <r>   12.4678    0.0000 </r>
       <r>   12.7908    0.0000 </r>
       <r>   12.7908    0.0000 </r>
       <r>   12.8311    0.0000 </r>
       <r>   12.8311    0.0000 </r>
       <r>   14.0038    0.0000 </r>
       <r>   15.2984    0.0000 </r>
       <r>   16.1743    0.0000 </r>
       <r>   19.5824    0.0000 </r>
       <r>   25.6317    0.0000 </r>
      </set>
      <set comment="kpoint 2">
       <r>  -16.1751    1.0000 </r>
       <r>  -16.0677    1.0000 </r>
       <r>   -4.1694    1.0000 </r>
       <r>   -3.0808    1.0000 </r>
       <r>   -0.8520    1.0000 </r>
       <r>   -0.8179    1.0000 </r>
       <r>   -0.4248    1.0000 </r>
       <r>   -0.3908    1.0000 </r>
       <r>    6.3021    0.0000 </r>
       <r>   10.1554    0.0000 </r>
       <r>   12.3713    0.0000 </r>
       <r>   12.7136    0.0000 </r>
       <r>   13.3008    0.0000 </r>
       <r>   13.3834    0.0000 </r>
       <r>   13.6253    0.0000 </r>
       <r>   13.6659    0.0000 </r>
       <r>   15.6654    0.0000 </r>
       <r>   15.9157    0.0000 </r>
       <r>   20.0032    0.0000 </r>
       <r>   24.8062    0.0000 </r>
      </set>
      <set comment="kpoint 3">
       <r>  -15.6152    1.0000 </r>
       <r>  -15.5156    1.0000 </r>
       <r>   -3.3943    1.0000 </r>
       <r>   -2.7208    1.0000 </r>
       <r>   -2.6811    1.0000 </r>
       <r>   -2.3637    1.0000 </r>
       <r>   -1.2351    1.0000 </r>
       <r>   -1.1997    1.0000 </r>
       <r>    7.2136    0.0000 </r>
       <r>    9.9747    0.0000 </r>
       <r>   11.7063    0.0000 </r>
       <r>   11.9563    0.0000 </r>
       <r>   12.4770    0.0000 </r>
       <r>   14.6944    0.0000 </r>
       <r>   14.7207    0.0000 </r>
       <r>   15.8101    0.0000 </r>
       <r>   15.8543    0.0000 </r>
       <r>   17.3645    0.0000 </r>
       <r>   20.8556    0.0000 </r>
       <r>   22.4403    0.0000 </r>
      </set>
      <set comment="kpoint 4">
       <r>  -14.7523    1.0000 </r>
       <r>  -14.6666    1.0000 </r>
       <r>   -4.8943    1.0000 </r>
       <r>   -4.8470    1.0000 </r>
       <r>   -2.1704    1.0000 </r>
       <r>   -2.0607    1.0000 </r>
       <r>   -2.0243    1.0000 </r>
       <r>   -1.2586    1.0000 </r>
       <r>    8.5546    0.0000 </r>
       <r>    8.7923    0.0000 </r>
       <r>    9.4699    0.0000 </r>
       <r>   11.5416    0.0000 </r>
       <r>   12.3031    0.0000 </r>
       <r>   14.5019    0.0000 </r>
       <r>   16.2674    0.0000 </r>
       <r>   18.7146    0.0000 </r>
       <r>   18.7707    0.0000 </r>
       <r>   18.7756    0.0000 </r>
       <r>   20.1221    0.0000 </r>
       <r>   20.9812    0.0000 </r>
      </set>
      <set comment="kpoint 5">
       <r>  -13.7845    1.0000 </r>
       <r>  -13.7212    1.0000 </r>
       <r>   -6.7627    1.0000 </r>
       <r>   -6.7068    1.0000 </r>
       <r>   -2.6341    1.0000 </r>
       <r>   -2.5972    1.0000 </r>
       <r>   -0.6993    1.0000 </r>
       <r>   -0.0340    1.0000 </r>
       <r>    6.8378    0.0000 </r>
       <r>    7.4269    0.0000 </r>
       <r>   10.0507    0.0000 </r>
       <r>   11.2299    0.0000 </r>
       <r>   12.5315    0.0000 </r>
       <r>   15.2598    0.0000 </r>
       <r>   16.1548    0.0000 </r>
       <r>   18.3965    0.0000 </r>
       <r>   19.1594    0.0000 </r>
       <r>   21.1837    0.0000 </r>
       <r>   21.5216    0.0000 </r>
       <r>   21.6315    0.0000 </r>
      </set>
      <set comment="kpoint 6">
       <r>  -13.2750    1.0000 </r>
       <r>  -13.2336    1.0000 </r>
       <r>   -7.5824    1.0000 </r>
       <r>   -7.5231    1.0000 </r>
       <r>   -2.8363    1.0000 </r>
       <r>   -2.7992    1.0000 </r>
       <r>    0.2326    1.0000 </r>
       <r>    0.5258    1.0000 </r>
       <r>    5.7859    0.0000 </r>
       <r>    6.4448    0.0000 </r>
       <r>   10.8261    0.0000 </r>
       <r>   10.9943    0.0000 </r>
       <r>   13.6826    0.0000 </r>
       <r>   14.2986    0.0000 </r>
       <r>   15.9781    0.0000 </r>
       <r>   17.4801    0.0000 </r>
       <r>   19.7055    0.0000 </r>
       <r>   21.5084    0.0000 </r>
       <r>   22.4178    0.0000 </r>
       <r>   22.8229    0.0000 </r>
      </set>
      <set comment="kpoint 7">
       <r>  -15.7987    1.0000 </r>
       <r>  -15.6965    1.0000 </r>
       <r>   -3.6497    1.0000 </r>
       <r>   -2.5988    1.0000 </r>
       <r>   -2.0543    1.0000 </r>
       <r>   -2.0199    1.0000 </r>
       <r>   -1.1337    1.0000 </r>
       <r>   -1.1004    1.0000 </r>
       <r>    6.9361    0.0000 </r>
       <r>   10.0958    0.0000 </r>
       <r>   12.2565    0.0000 </r>
       <r>   12.6931    0.0000 </r>
       <r>   12.8847    0.0000 </r>
       <r>   13.3606    0.0000 </r>
       <r>   14.5938    0.0000 </r>
       <r>   14.9336    0.0000 </r>
       <r>   15.4622    0.0000 </r>
       <r>   17.1849    0.0000 </r>
       <r>   20.6704    0.0000 </r>
       <r>   22.9504    0.0000 </r>
      </set>
      <set comment="kpoint 8">
       <r>  -15.0827    1.0000 </r>
       <r>  -14.9912    1.0000 </r>
       <r>   -3.9029    1.0000 </r>
       <r>   -3.8638    1.0000 </r>
       <r>   -2.6458    1.0000 </r>
       <r>   -2.1282    1.0000 </r>
       <r>   -2.0929    1.0000 </r>
       <r>   -1.6813    1.0000 </r>
       <r>    8.1004    0.0000 </r>
       <r>    9.4232    0.0000 </r>
       <r>   10.3625    0.0000 </r>
       <r>   12.5380    0.0000 </r>
       <r>   13.0257    0.0000 </r>
       <r>   14.4048    0.0000 </r>
       <r>   14.7376    0.0000 </r>
       <r>   16.1695    0.0000 </r>
       <r>   17.8367    0.0000 </r>
       <r>   19.3173    0.0000 </r>
       <r>   20.2802    0.0000 </r>
       <r>   21.3965    0.0000 </r>
      </set>
      <set comment="kpoint 9">
       <r>  -14.1418    1.0000 </r>
       <r>  -14.0679    1.0000 </r>
       <r>   -5.8618    1.0000 </r>
       <r>   -5.8128    1.0000 </r>
       <r>   -2.9149    1.0000 </r>
       <r>   -2.8769    1.0000 </r>
       <r>   -1.2702    1.0000 </r>
       <r>   -0.4767    1.0000 </r>
       <r>    7.7815    0.0000 </r>
       <r>    8.2630    0.0000 </r>
       <r>    9.6668    0.0000 </r>
       <r>   12.1981    0.0000 </r>
       <r>   13.0112    0.0000 </r>
       <r>   14.7277    0.0000 </r>
       <r>   16.2515    0.0000 </r>
       <r>   18.1277    0.0000 </r>
       <r>   18.2048    0.0000 </r>
       <r>   20.0425    0.0000 </r>
       <r>   20.4538    0.0000 </r>
       <r>   21.3404    0.0000 </r>
      </set>
      <set comment="kpoint 10">
       <r>  -13.3210    1.0000 </r>
       <r>  -13.2729    1.0000 </r>
       <r>   -7.2542    1.0000 </r>
       <r>   -7.1973    1.0000 </r>
       <r>   -3.3333    1.0000 </r>
       <r>   -3.2942    1.0000 </r>
       <r>    0.0884    1.0000 </r>
       <r>    0.5275    1.0000 </r>
       <r>    6.1166    0.0000 </r>
       <r>    6.6916    0.0000 </r>
       <r>   11.1999    0.0000 </r>
       <r>   11.9044    0.0000 </r>
       <r>   13.4487    0.0000 </r>
       <r>   15.2943    0.0000 </r>
       <r>   15.4040    0.0000 </r>
       <r>   16.9439    0.0000 </r>
       <r>   19.2863    0.0000 </r>
       <r>   20.7798    0.0000 </r>
       <r>   20.9104    0.0000 </r>
       <r>   22.1107    0.0000 </r>
      </set>
      <set comment="kpoint 11">
       <r>  -14.2731    1.0000 </r>
       <r>  -14.1956    1.0000 </r>
       <r>   -5.1983    1.0000 </r>
       <r>   -5.1643    1.0000 </r>
       <r>   -3.4298    1.0000 </r>
       <r>   -3.3945    1.0000 </r>
       <r>   -1.4742    1.0000 </r>
       <r>   -0.6411    1.0000 </r>
       <r>    8.2688    0.0000 </r>
       <r>    8.6598    0.0000 </r>
       <r>    9.5485    0.0000 </r>
       <r>   14.1267    0.0000 </r>
       <r>   14.2885    0.0000 </r>
       <r>   14.4620    0.0000 </r>
       <r>   14.6108    0.0000 </r>
       <r>   16.2665    0.0000 </r>
       <r>   17.6469    0.0000 </r>
       <r>   19.6699    0.0000 </r>
       <r>   20.7161    0.0000 </r>
       <r>   21.4221    0.0000 </r>
      </set>
      <set comment="kpoint 12">
       <r>  -13.3907    1.0000 </r>
       <r>  -13.3345    1.0000 </r>
       <r>   -6.4961    1.0000 </r>
       <r>   -6.4514    1.0000 </r>
       <r>   -4.3349    1.0000 </r>
       <r>   -4.2940    1.0000 </r>
       <r>   -0.0908    1.0000 </r>
       <r>    0.4898    1.0000 </r>
       <r>    6.7658    0.0000 </r>
       <r>    7.0593    0.0000 </r>
       <r>   11.3951    0.0000 </r>
       <r>   13.9338    0.0000 </r>
       <r>   14.5483    0.0000 </r>
       <r>   14.7504    0.0000 </r>
       <r>   15.8125    0.0000 </r>
       <r>   15.9638    0.0000 </r>
       <r>   17.7442    0.0000 </r>
       <r>   20.0352    0.0000 </r>
       <r>   20.0854    0.0000 </r>
       <r>   20.8253    0.0000 </r>
      </set>
      <set comment="kpoint 13">
       <r>  -12.9450    1.0000 </r>
       <r>  -12.9070    1.0000 </r>
       <r>   -7.1231    1.0000 </r>
       <r>   -7.0695    1.0000 </r>
       <r>   -4.6265    1.0000 </r>
       <r>   -4.5823    1.0000 </r>
       <r>    0.7629    1.0000 </r>
       <r>    0.9959    1.0000 </r>
       <r>    5.9133    0.0000 </r>
       <r>    6.3085    0.0000 </r>
       <r>   13.0240    0.0000 </r>
       <r>   13.3528    0.0000 </r>
       <r>   14.5696    0.0000 </r>
       <r>   14.7170    0.0000 </r>
       <r>   15.1237    0.0000 </r>
       <r>   15.6888    0.0000 </r>
       <r>   19.0254    0.0000 </r>
       <r>   20.2390    0.0000 </r>
       <r>   20.3589    0.0000 </r>
       <r>   20.9487    0.0000 </r>
      </set>
      <set comment="kpoint 14">
       <r>  -12.8084    1.0000 </r>
       <r>  -12.7710    1.0000 </r>
       <r>   -6.6641    1.0000 </r>
       <r>   -6.6256    1.0000 </r>
       <r>   -5.5369    1.0000 </r>
       <r>   -5.4973    1.0000 </r>
       <r>    0.9752    1.0000 </r>
       <r>    1.2170    1.0000 </r>
       <r>    6.0301    0.0000 </r>
       <r>    6.1613    0.0000 </r>
       <r>   13.3724    0.0000 </r>
       <r>   13.9429    0.0000 </r>
       <r>   14.3607    0.0000 </r>
       <r>   14.6070    0.0000 </r>
       <r>   15.6470    0.0000 </r>
       <r>   17.1736    0.0000 </r>
       <r>   18.2940    0.0000 </r>
       <r>   19.4915    0.0000 </r>
       <r>   20.0077    0.0000 </r>
       <r>   20.2898    0.0000 </r>
      </set>
      <set comment="kpoint 15">
       <r>  -16.3432    1.0000 </r>
       <r>  -16.2819    1.0000 </r>
       <r>   -4.1883    1.0000 </r>
       <r>   -3.6397    1.0000 </r>
       <r>   -0.0648    1.0000 </r>
       <r>   -0.0648    1.0000 </r>
       <r>   -0.0318    1.0000 </r>
       <r>   -0.0318    1.0000 </r>
       <r>    6.7807    0.0000 </r>
       <r>    8.6992    0.0000 </r>
       <r>   12.7946    0.0000 </r>
       <r>   12.7946    0.0000 </r>
       <r>   12.8272    0.0000 </r>
       <r>   12.8272    0.0000 </r>
       <r>   13.1790    0.0000 </r>
       <r>   13.7994    0.0000 </r>
       <r>   15.4475    0.0000 </r>
       <r>   15.8377    0.0000 </r>
       <r>   21.1010    0.0000 </r>
       <r>   24.0039    0.0000 </r>
      </set>
      <set comment="kpoint 16">
       <r>  -16.1520    1.0000 </r>
       <r>  -16.0917    1.0000 </r>
       <r>   -3.9286    1.0000 </r>
       <r>   -3.3889    1.0000 </r>
       <r>   -0.8499    1.0000 </r>
       <r>   -0.8168    1.0000 </r>
       <r>   -0.4244    1.0000 </r>
       <r>   -0.3913    1.0000 </r>
       <r>    7.0996    0.0000 </r>
       <r>    8.9234    0.0000 </r>
       <r>   12.5568    0.0000 </r>
       <r>   12.6835    0.0000 </r>
       <r>   13.3463    0.0000 </r>
       <r>   13.3956    0.0000 </r>
       <r>   13.6291    0.0000 </r>
       <r>   13.6618    0.0000 </r>
       <r>   15.7781    0.0000 </r>
       <r>   15.8854    0.0000 </r>
       <r>   21.2983    0.0000 </r>
       <r>   23.7607    0.0000 </r>
      </set>
      <set comment="kpoint 17">
       <r>  -15.5942    1.0000 </r>
       <r>  -15.5374    1.0000 </r>
       <r>   -3.1734    1.0000 </r>
       <r>   -2.7574    1.0000 </r>
       <r>   -2.6869    1.0000 </r>
       <r>   -2.5977    1.0000 </r>
       <r>   -1.2340    1.0000 </r>
       <r>   -1.2008    1.0000 </r>
       <r>    7.9095    0.0000 </r>
       <r>    9.3137    0.0000 </r>
       <r>   11.7786    0.0000 </r>
       <r>   11.9359    0.0000 </r>
       <r>   12.5478    0.0000 </r>
       <r>   13.0872    0.0000 </r>
       <r>   15.8149    0.0000 </r>
       <r>   15.8490    0.0000 </r>
       <r>   16.4010    0.0000 </r>
       <r>   17.1749    0.0000 </r>
       <r>   21.5324    0.0000 </r>
       <r>   22.4297    0.0000 </r>
      </set>
      <set comment="kpoint 18">
       <r>  -14.7352    1.0000 </r>
       <r>  -14.6842    1.0000 </r>
       <r>   -4.8897    1.0000 </r>
       <r>   -4.8541    1.0000 </r>
       <r>   -2.0592    1.0000 </r>
       <r>   -2.0258    1.0000 </r>
       <r>   -1.9610    1.0000 </r>
       <r>   -1.5069    1.0000 </r>
       <r>    8.6022    0.0000 </r>
       <r>    8.7756    0.0000 </r>
       <r>   10.1070    0.0000 </r>
       <r>   11.2782    0.0000 </r>
       <r>   12.3764    0.0000 </r>
       <r>   13.0842    0.0000 </r>
       <r>   17.4770    0.0000 </r>
       <r>   18.4825    0.0000 </r>
       <r>   18.7239    0.0000 </r>
       <r>   18.7641    0.0000 </r>
       <r>   20.1586    0.0000 </r>
       <r>   21.1967    0.0000 </r>
      </set>
      <set comment="kpoint 19">
       <r>  -13.7741    1.0000 </r>
       <r>  -13.7318    1.0000 </r>
       <r>   -6.7546    1.0000 </r>
       <r>   -6.7162    1.0000 </r>
       <r>   -2.6324    1.0000 </r>
       <r>   -2.5990    1.0000 </r>
       <r>   -0.5402    1.0000 </r>
       <r>   -0.2067    1.0000 </r>
       <r>    6.9126    0.0000 </r>
       <r>    7.1948    0.0000 </r>
       <r>   10.5903    0.0000 </r>
       <r>   11.1396    0.0000 </r>
       <r>   12.8207    0.0000 </r>
       <r>   14.0197    0.0000 </r>
       <r>   16.8841    0.0000 </r>
       <r>   17.9264    0.0000 </r>
       <r>   19.4922    0.0000 </r>
       <r>   21.0599    0.0000 </r>
       <r>   21.5382    0.0000 </r>
       <r>   21.5971    0.0000 </r>
      </set>
      <set comment="kpoint 20">
       <r>  -13.2718    1.0000 </r>
       <r>  -13.2368    1.0000 </r>
       <r>   -7.5731    1.0000 </r>
       <r>   -7.5337    1.0000 </r>
       <r>   -2.8345    1.0000 </r>
       <r>   -2.8010    1.0000 </r>
       <r>    0.3117    1.0000 </r>
       <r>    0.4620    1.0000 </r>
       <r>    5.8833    0.0000 </r>
       <r>    6.2072    0.0000 </r>
       <r>   10.9599    0.0000 </r>
       <r>   11.0402    0.0000 </r>
       <r>   14.0926    0.0000 </r>
       <r>   14.4809    0.0000 </r>
       <r>   15.7487    0.0000 </r>
       <r>   16.7297    0.0000 </r>
       <r>   19.6983    0.0000 </r>
       <r>   21.1393    0.0000 </r>
       <r>   22.8330    0.0000 </r>
       <r>   22.8927    0.0000 </r>
      </set>
      <set comment="kpoint 21">
       <r>  -15.7770    1.0000 </r>
       <r>  -15.7191    1.0000 </r>
       <r>   -3.4183    1.0000 </r>
       <r>   -2.8992    1.0000 </r>
       <r>   -2.0481    1.0000 </r>
       <r>   -2.0152    1.0000 </r>
       <r>   -1.1333    1.0000 </r>
       <r>   -1.1006    1.0000 </r>
       <r>    7.6744    0.0000 </r>
       <r>    9.2521    0.0000 </r>
       <r>   12.3365    0.0000 </r>
       <r>   12.5904    0.0000 </r>
       <r>   12.8763    0.0000 </r>
       <r>   12.9803    0.0000 </r>
       <r>   14.5877    0.0000 </r>
       <r>   14.6515    0.0000 </r>
       <r>   16.4324    0.0000 </r>
       <r>   17.0366    0.0000 </r>
       <r>   21.5400    0.0000 </r>
       <r>   22.7932    0.0000 </r>
      </set>
      <set comment="kpoint 22">
       <r>  -15.0640    1.0000 </r>
       <r>  -15.0106    1.0000 </r>
       <r>   -3.9023    1.0000 </r>
       <r>   -3.8695    1.0000 </r>
       <r>   -2.4253    1.0000 </r>
       <r>   -2.1272    1.0000 </r>
       <r>   -2.0951    1.0000 </r>
       <r>   -1.9426    1.0000 </r>
       <r>    8.5811    0.0000 </r>
       <r>    9.2327    0.0000 </r>
       <r>   10.7022    0.0000 </r>
       <r>   11.9314    0.0000 </r>
       <r>   13.0237    0.0000 </r>
       <r>   13.1708    0.0000 </r>
       <r>   15.7757    0.0000 </r>
       <r>   16.1021    0.0000 </r>
       <r>   18.3500    0.0000 </r>
       <r>   19.0602    0.0000 </r>
       <r>   20.4243    0.0000 </r>
       <r>   21.4371    0.0000 </r>
      </set>
      <set comment="kpoint 23">
       <r>  -14.1282    1.0000 </r>
       <r>  -14.0819    1.0000 </r>
       <r>   -5.8561    1.0000 </r>
       <r>   -5.8200    1.0000 </r>
       <r>   -2.9128    1.0000 </r>
       <r>   -2.8794    1.0000 </r>
       <r>   -1.0848    1.0000 </r>
       <r>   -0.6885    1.0000 </r>
       <r>    7.8106    0.0000 </r>
       <r>    8.0136    0.0000 </r>
       <r>   10.5629    0.0000 </r>
       <r>   11.8917    0.0000 </r>
       <r>   13.0619    0.0000 </r>
       <r>   13.6153    0.0000 </r>
       <r>   16.9448    0.0000 </r>
       <r>   17.8189    0.0000 </r>
       <r>   18.5359    0.0000 </r>
       <r>   19.4589    0.0000 </r>
       <r>   20.7129    0.0000 </r>
       <r>   21.6838    0.0000 </r>
      </set>
      <set comment="kpoint 24">
       <r>  -13.3155    1.0000 </r>
       <r>  -13.2784    1.0000 </r>
       <r>   -7.2457    1.0000 </r>
       <r>   -7.2071    1.0000 </r>
       <r>   -3.3308    1.0000 </r>
       <r>   -3.2970    1.0000 </r>
       <r>    0.1997    1.0000 </r>
       <r>    0.4217    1.0000 </r>
       <r>    6.2040    0.0000 </r>
       <r>    6.4870    0.0000 </r>
       <r>   11.5401    0.0000 </r>
       <r>   11.8703    0.0000 </r>
       <r>   13.7060    0.0000 </r>
       <r>   14.5245    0.0000 </r>
       <r>   15.9011    0.0000 </r>
       <r>   16.9720    0.0000 </r>
       <r>   18.7129    0.0000 </r>
       <r>   20.2030    0.0000 </r>
       <r>   21.7405    0.0000 </r>
       <r>   22.0804    0.0000 </r>
      </set>
      <set comment="kpoint 25">
       <r>  -14.2584    1.0000 </r>
       <r>  -14.2107    1.0000 </r>
       <r>   -5.1980    1.0000 </r>
       <r>   -5.1663    1.0000 </r>
       <r>   -3.4287    1.0000 </r>
       <r>   -3.3963    1.0000 </r>
       <r>   -1.2806    1.0000 </r>
       <r>   -0.8649    1.0000 </r>
       <r>    8.2714    0.0000 </r>
       <r>    8.3827    0.0000 </r>
       <r>   10.5934    0.0000 </r>
       <r>   12.5612    0.0000 </r>
       <r>   14.1875    0.0000 </r>
       <r>   14.2983    0.0000 </r>
       <r>   15.6215    0.0000 </r>
       <r>   16.1340    0.0000 </r>
       <r>   17.9311    0.0000 </r>
       <r>   18.8028    0.0000 </r>
       <r>   20.9446    0.0000 </r>
       <r>   21.8374    0.0000 </r>
      </set>
      <set comment="kpoint 26">
       <r>  -13.3826    1.0000 </r>
       <r>  -13.3428    1.0000 </r>
       <r>   -6.4915    1.0000 </r>
       <r>   -6.4569    1.0000 </r>
       <r>   -4.3318    1.0000 </r>
       <r>   -4.2978    1.0000 </r>
       <r>    0.0501    1.0000 </r>
       <r>    0.3417    1.0000 </r>
       <r>    6.8038    0.0000 </r>
       <r>    6.9454    0.0000 </r>
       <r>   12.0138    0.0000 </r>
       <r>   13.2476    0.0000 </r>
       <r>   14.5453    0.0000 </r>
       <r>   14.6715    0.0000 </r>
       <r>   15.7459    0.0000 </r>
       <r>   16.6282    0.0000 </r>
       <r>   17.5251    0.0000 </r>
       <r>   18.6272    0.0000 </r>
       <r>   20.7207    0.0000 </r>
       <r>   21.7447    0.0000 </r>
      </set>
      <set comment="kpoint 27">
       <r>  -12.9431    1.0000 </r>
       <r>  -12.9088    1.0000 </r>
       <r>   -7.1154    1.0000 </r>
       <r>   -7.0780    1.0000 </r>
       <r>   -4.6221    1.0000 </r>
       <r>   -4.5872    1.0000 </r>
       <r>    0.8263    1.0000 </r>
       <r>    0.9470    1.0000 </r>
       <r>    5.9784    0.0000 </r>
       <r>    6.1747    0.0000 </r>
       <r>   13.1011    0.0000 </r>
       <r>   13.3092    0.0000 </r>
       <r>   14.4801    0.0000 </r>
       <r>   14.5633    0.0000 </r>
       <r>   15.4779    0.0000 </r>
       <r>   16.4548    0.0000 </r>
       <r>   18.0062    0.0000 </r>
       <r>   19.4696    0.0000 </r>
       <r>   20.6087    0.0000 </r>
       <r>   21.3367    0.0000 </r>
      </set>
      <set comment="kpoint 28">
       <r>  -12.8067    1.0000 </r>
       <r>  -12.7726    1.0000 </r>
       <r>   -6.6611    1.0000 </r>
       <r>   -6.6286    1.0000 </r>
       <r>   -5.5345    1.0000 </r>
       <r>   -5.5011    1.0000 </r>
       <r>    1.0396    1.0000 </r>
       <r>    1.1644    1.0000 </r>
       <r>    6.0500    0.0000 </r>
       <r>    6.1094    0.0000 </r>
       <r>   13.0952    0.0000 </r>
       <r>   13.5160    0.0000 </r>
       <r>   14.5760    0.0000 </r>
       <r>   15.7103    0.0000 </r>
       <r>   15.8948    0.0000 </r>
       <r>   16.8335    0.0000 </r>
       <r>   18.1325    0.0000 </r>
       <r>   18.9619    0.0000 </r>
       <r>   19.5924    0.0000 </r>
       <r>   21.1408    0.0000 </r>
      </set>
     </set>
    </set>
   </array>
  </eigenvalues>
  <separator name="orbital magnetization" >
   <v name="MAGDIPOLOUT">      0.00000000      0.00000000      0.00000000</v>
  </separator>
  <dos>
   <i name="efermi">      1.56203628 </i>
   <total>
    <array>
     <dimension dim="1">gridpoints</dimension>
     <dimension dim="2">spin</dimension>
     <field>energy</field>
     <field>total</field>
     <field>integrated</field>
     <set>
      <set comment="spin 1">
       <r>   -18.4670     0.0000     0.0000 </r>
       <r>   -18.3130     0.0000     0.0000 </r>
       <r>   -18.1590     0.0000     0.0000 </r>
       <r>   -18.0050     0.0000     0.0000 </r>
       <r>   -17.8510     0.0000     0.0000 </r>
       <r>   -17.6970     0.0000     0.0000 </r>
       <r>   -17.5430     0.0000     0.0000 </r>
       <r>   -17.3890     0.0000     0.0000 </r>
       <r>   -17.2350     0.0000     0.0000 </r>
       <r>   -17.0810     0.0000     0.0000 </r>
       <r>   -16.9270     0.0000     0.0000 </r>
       <r>   -16.7730     0.0000     0.0000 </r>
       <r>   -16.6190     0.0000     0.0000 </r>
       <r>   -16.4650     0.0001     0.0000 </r>
       <r>   -16.3110     0.1321     0.0204 </r>
       <r>   -16.1570     0.5564     0.1060 </r>
       <r>   -16.0030     1.1177     0.2782 </r>
       <r>   -15.8490     0.0429     0.2848 </r>
       <r>   -15.6951     1.2715     0.4806 </r>
       <r>   -15.5411     1.2959     0.6801 </r>
       <r>   -15.3871     0.5186     0.7600 </r>
       <r>   -15.2331     0.0000     0.7600 </r>
       <r>   -15.0791     0.6602     0.8617 </r>
       <r>   -14.9251     2.4327     1.2363 </r>
       <r>   -14.7711     0.1860     1.2649 </r>
       <r>   -14.6171     1.3604     1.4744 </r>
       <r>   -14.4631     0.0362     1.4800 </r>
       <r>   -14.3091     0.0811     1.4925 </r>
       <r>   -14.1551     1.8531     1.7779 </r>
       <r>   -14.0011     2.7142     2.1958 </r>
       <r>   -13.8471     0.0475     2.2031 </r>
       <r>   -13.6931     1.4046     2.4194 </r>
       <r>   -13.5391     0.1335     2.4400 </r>
       <r>   -13.3851     0.9875     2.5921 </r>
       <r>   -13.2311     5.6356     3.4599 </r>
       <r>   -13.0771     0.3902     3.5200 </r>
       <r>   -12.9231     0.8235     3.6468 </r>
       <r>   -12.7691     1.8201     3.9271 </r>
       <r>   -12.6151     0.4733     4.0000 </r>
       <r>   -12.4612     0.0000     4.0000 </r>
       <r>   -12.3072     0.0000     4.0000 </r>
       <r>   -12.1532     0.0000     4.0000 </r>
       <r>   -11.9992     0.0000     4.0000 </r>
       <r>   -11.8452     0.0000     4.0000 </r>
       <r>   -11.6912     0.0000     4.0000 </r>
       <r>   -11.5372     0.0000     4.0000 </r>
       <r>   -11.3832     0.0000     4.0000 </r>
       <r>   -11.2292     0.0000     4.0000 </r>
       <r>   -11.0752     0.0000     4.0000 </r>
       <r>   -10.9212     0.0000     4.0000 </r>
       <r>   -10.7672     0.0000     4.0000 </r>
       <r>   -10.6132     0.0000     4.0000 </r>
       <r>   -10.4592     0.0000     4.0000 </r>
       <r>   -10.3052     0.0000     4.0000 </r>
       <r>   -10.1512     0.0000     4.0000 </r>
       <r>    -9.9972     0.0000     4.0000 </r>
       <r>    -9.8432     0.0000     4.0000 </r>
       <r>    -9.6892     0.0000     4.0000 </r>
       <r>    -9.5352     0.0000     4.0000 </r>
       <r>    -9.3812     0.0000     4.0000 </r>
       <r>    -9.2273     0.0000     4.0000 </r>
       <r>    -9.0733     0.0000     4.0000 </r>
       <r>    -8.9193     0.0000     4.0000 </r>
       <r>    -8.7653     0.0000     4.0000 </r>
       <r>    -8.6113     0.0000     4.0000 </r>
       <r>    -8.4573     0.0000     4.0000 </r>
       <r>    -8.3033     0.0000     4.0000 </r>
       <r>    -8.1493     0.0000     4.0000 </r>
       <r>    -7.9953     0.0000     4.0000 </r>
       <r>    -7.8413     0.0000     4.0000 </r>
       <r>    -7.6873     0.0004     4.0001 </r>
       <r>    -7.5333     0.5260     4.0811 </r>
       <r>    -7.3793     0.2531     4.1200 </r>
       <r>    -7.2253     1.5844     4.3640 </r>
       <r>    -7.0713     2.6614     4.7739 </r>
       <r>    -6.9173     0.4295     4.8400 </r>
       <r>    -6.7633     0.4006     4.9017 </r>
       <r>    -6.6093     2.4269     5.2754 </r>
       <r>    -6.4553     2.3984     5.6448 </r>
       <r>    -6.3013     1.0080     5.8000 </r>
       <r>    -6.1473     0.0000     5.8000 </r>
       <r>    -5.9934     0.0001     5.8000 </r>
       <r>    -5.8394     1.5126     6.0330 </r>
       <r>    -5.6854     1.6041     6.2800 </r>
       <r>    -5.5314     0.5697     6.3677 </r>
       <r>    -5.3774     0.9887     6.5200 </r>
       <r>    -5.2234     0.2251     6.5546 </r>
       <r>    -5.0694     1.3310     6.7596 </r>
       <r>    -4.9154     0.2240     6.7941 </r>
       <r>    -4.7614     1.3328     6.9993 </r>
       <r>    -4.6074     0.7408     7.1134 </r>
       <r>    -4.4534     0.8347     7.2419 </r>
       <r>    -4.2994     2.0495     7.5576 </r>
       <r>    -4.1454     1.3701     7.7686 </r>
       <r>    -3.9914     0.1036     7.7845 </r>
       <r>    -3.8374     3.2464     8.2844 </r>
       <r>    -3.6834     0.4144     8.3482 </r>
       <r>    -3.5294     0.2949     8.3937 </r>
       <r>    -3.3754     2.4561     8.7719 </r>
       <r>    -3.2214     3.5757     9.3225 </r>
       <r>    -3.0674     0.6705     9.4258 </r>
       <r>    -2.9134     1.3084     9.6273 </r>
       <r>    -2.7595     3.4424    10.1574 </r>
       <r>    -2.6055     3.0218    10.6227 </r>
       <r>    -2.4515     1.3914    10.8370 </r>
       <r>    -2.2975     1.0506    10.9988 </r>
       <r>    -2.1435     0.8572    11.1308 </r>
       <r>    -1.9895     5.5027    11.9782 </r>
       <r>    -1.8355     1.6990    12.2398 </r>
       <r>    -1.6815     0.2599    12.2798 </r>
       <r>    -1.5275     0.4237    12.3451 </r>
       <r>    -1.3735     0.6192    12.4404 </r>
       <r>    -1.2195     1.9529    12.7411 </r>
       <r>    -1.0655     3.0487    13.2106 </r>
       <r>    -0.9115     0.5353    13.2931 </r>
       <r>    -0.7575     1.9931    13.6000 </r>
       <r>    -0.6035     1.5310    13.8358 </r>
       <r>    -0.4495     1.1745    14.0166 </r>
       <r>    -0.2955     1.4509    14.2401 </r>
       <r>    -0.1415     0.5460    14.3241 </r>
       <r>     0.0125     1.3727    14.5355 </r>
       <r>     0.1665     1.6342    14.7872 </r>
       <r>     0.3205     1.4327    15.0078 </r>
       <r>     0.4744     2.2094    15.3480 </r>
       <r>     0.6284     1.1153    15.5198 </r>
       <r>     0.7824     0.2415    15.5570 </r>
       <r>     0.9364     0.7858    15.6780 </r>
       <r>     1.0904     1.2811    15.8753 </r>
       <r>     1.2444     0.7470    15.9903 </r>
       <r>     1.3984     0.0630    16.0000 </r>
       <r>     1.5524     0.0000    16.0000 </r>
       <r>     1.7064     0.0000    16.0000 </r>
       <r>     1.8604     0.0000    16.0000 </r>
       <r>     2.0144     0.0000    16.0000 </r>
       <r>     2.1684     0.0000    16.0000 </r>
       <r>     2.3224     0.0000    16.0000 </r>
       <r>     2.4764     0.0000    16.0000 </r>
       <r>     2.6304     0.0000    16.0000 </r>
       <r>     2.7844     0.0000    16.0000 </r>
       <r>     2.9384     0.0000    16.0000 </r>
       <r>     3.0924     0.0000    16.0000 </r>
       <r>     3.2464     0.0000    16.0000 </r>
       <r>     3.4004     0.0000    16.0000 </r>
       <r>     3.5543     0.0000    16.0000 </r>
       <r>     3.7083     0.0000    16.0000 </r>
       <r>     3.8623     0.0000    16.0000 </r>
       <r>     4.0163     0.0000    16.0000 </r>
       <r>     4.1703     0.0000    16.0000 </r>
       <r>     4.3243     0.0000    16.0000 </r>
       <r>     4.4783     0.0000    16.0000 </r>
       <r>     4.6323     0.0000    16.0000 </r>
       <r>     4.7863     0.0000    16.0000 </r>
       <r>     4.9403     0.0000    16.0000 </r>
       <r>     5.0943     0.0000    16.0000 </r>
       <r>     5.2483     0.0000    16.0000 </r>
       <r>     5.4023     0.0000    16.0000 </r>
       <r>     5.5563     0.0000    16.0000 </r>
       <r>     5.7103     0.0021    16.0003 </r>
       <r>     5.8643     0.2249    16.0350 </r>
       <r>     6.0183     1.1115    16.2061 </r>
       <r>     6.1723     2.2827    16.5576 </r>
       <r>     6.3263     1.8623    16.8444 </r>
       <r>     6.4803     0.6952    16.9515 </r>
       <r>     6.6343     0.6453    17.0509 </r>
       <r>     6.7882     1.2881    17.2492 </r>
       <r>     6.9422     2.1541    17.5810 </r>
       <r>     7.0962     1.4573    17.8054 </r>
       <r>     7.2502     1.0646    17.9693 </r>
       <r>     7.4042     0.1372    17.9904 </r>
       <r>     7.5582     0.1922    18.0200 </r>
       <r>     7.7122     0.4611    18.0910 </r>
       <r>     7.8662     1.6097    18.3389 </r>
       <r>     8.0202     1.1285    18.5127 </r>
       <r>     8.1742     0.9524    18.6594 </r>
       <r>     8.3282     1.2775    18.8561 </r>
       <r>     8.4822     0.5515    18.9411 </r>
       <r>     8.6362     1.7280    19.2072 </r>
       <r>     8.7902     0.8957    19.3451 </r>
       <r>     8.9442     0.6880    19.4511 </r>
       <r>     9.0982     0.1448    19.4733 </r>
       <r>     9.2522     1.0184    19.6302 </r>
       <r>     9.4062     1.2302    19.8196 </r>
       <r>     9.5602     0.7712    19.9384 </r>
       <r>     9.7142     0.5696    20.0261 </r>
       <r>     9.8682     0.0472    20.0334 </r>
       <r>    10.0221     0.2998    20.0795 </r>
       <r>    10.1761     1.2111    20.2661 </r>
       <r>    10.3301     0.1841    20.2944 </r>
       <r>    10.4841     0.4404    20.3622 </r>
       <r>    10.6381     1.9832    20.6676 </r>
       <r>    10.7921     1.1355    20.8425 </r>
       <r>    10.9461     0.2164    20.8758 </r>
       <r>    11.1001     0.6045    20.9689 </r>
       <r>    11.2541     1.2724    21.1649 </r>
       <r>    11.4081     0.8225    21.2915 </r>
       <r>    11.5621     1.1334    21.4661 </r>
       <r>    11.7161     0.5285    21.5475 </r>
       <r>    11.8701     1.5441    21.7852 </r>
       <r>    12.0241     4.0959    22.4160 </r>
       <r>    12.1781     0.5676    22.5034 </r>
       <r>    12.3321     1.1522    22.6808 </r>
       <r>    12.4861     1.3242    22.8847 </r>
       <r>    12.6401     2.8922    23.3301 </r>
       <r>    12.7941     1.3110    23.5320 </r>
       <r>    12.9481     1.6452    23.7854 </r>
       <r>    13.1021     4.9111    24.5417 </r>
       <r>    13.2560     2.7410    24.9638 </r>
       <r>    13.4100     2.9664    25.4206 </r>
       <r>    13.5640     1.3559    25.6294 </r>
       <r>    13.7180     3.2513    26.1300 </r>
       <r>    13.8720     0.5658    26.2172 </r>
       <r>    14.0260     1.0860    26.3844 </r>
       <r>    14.1800     0.9485    26.5305 </r>
       <r>    14.3340     1.1733    26.7112 </r>
       <r>    14.4880     1.8290    26.9928 </r>
       <r>    14.6420     5.7690    27.8812 </r>
       <r>    14.7960     3.5294    28.4247 </r>
       <r>    14.9500     0.2753    28.4671 </r>
       <r>    15.1040     0.1583    28.4915 </r>
       <r>    15.2580     0.3939    28.5522 </r>
       <r>    15.4120     0.9693    28.7014 </r>
       <r>    15.5660     1.0597    28.8646 </r>
       <r>    15.7200     1.8991    29.1571 </r>
       <r>    15.8740     5.2398    29.9640 </r>
       <r>    16.0280     2.6489    30.3719 </r>
       <r>    16.1820     2.0858    30.6931 </r>
       <r>    16.3360     1.3448    30.9002 </r>
       <r>    16.4899     1.4440    31.1226 </r>
       <r>    16.6439     0.8131    31.2478 </r>
       <r>    16.7979     0.6773    31.3521 </r>
       <r>    16.9519     2.1543    31.6838 </r>
       <r>    17.1059     1.9339    31.9817 </r>
       <r>    17.2599     1.0181    32.1384 </r>
       <r>    17.4139     0.2730    32.1805 </r>
       <r>    17.5679     1.5679    32.4219 </r>
       <r>    17.7219     0.5134    32.5010 </r>
       <r>    17.8759     1.8872    32.7916 </r>
       <r>    18.0299     1.4828    33.0200 </r>
       <r>    18.1839     1.2462    33.2119 </r>
       <r>    18.3379     1.0668    33.3761 </r>
       <r>    18.4919     1.3585    33.5853 </r>
       <r>    18.6459     1.9061    33.8789 </r>
       <r>    18.7999     3.1517    34.3642 </r>
       <r>    18.9539     0.7124    34.4739 </r>
       <r>    19.1079     1.5220    34.7083 </r>
       <r>    19.2619     0.4928    34.7842 </r>
       <r>    19.4159     1.0424    34.9447 </r>
       <r>    19.5698     2.3170    35.3015 </r>
       <r>    19.7238     0.9556    35.4487 </r>
       <r>    19.8778     0.1169    35.4667 </r>
       <r>    20.0318     0.8739    35.6013 </r>
       <r>    20.1858     2.2035    35.9406 </r>
       <r>    20.3398     1.8985    36.2330 </r>
       <r>    20.4938     1.6851    36.4925 </r>
       <r>    20.6478     0.6714    36.5958 </r>
       <r>    20.8018     3.0480    37.0652 </r>
       <r>    20.9558     1.7931    37.3414 </r>
       <r>    21.1098     1.2439    37.5329 </r>
       <r>    21.2638     1.5601    37.7732 </r>
       <r>    21.4178     2.2598    38.1212 </r>
       <r>    21.5718     2.8366    38.5580 </r>
       <r>    21.7258     2.4981    38.9427 </r>
       <r>    21.8798     2.0005    39.2507 </r>
       <r>    22.0338     0.1651    39.2762 </r>
       <r>    22.1878     1.4447    39.4986 </r>
       <r>    22.3418     0.0149    39.5009 </r>
       <r>    22.4958     0.8701    39.6349 </r>
       <r>    22.6498     0.0330    39.6400 </r>
       <r>    22.8037     0.4135    39.7037 </r>
       <r>    22.9577     0.8980    39.8420 </r>
       <r>    23.1117     0.1171    39.8600 </r>
       <r>    23.2657     0.0000    39.8600 </r>
       <r>    23.4197     0.0000    39.8600 </r>
       <r>    23.5737     0.0000    39.8600 </r>
       <r>    23.7277     0.0911    39.8740 </r>
       <r>    23.8817     0.4283    39.9400 </r>
       <r>    24.0357     0.0708    39.9509 </r>
       <r>    24.1897     0.0160    39.9533 </r>
       <r>    24.3437     0.0000    39.9533 </r>
       <r>    24.4977     0.0000    39.9533 </r>
       <r>    24.6517     0.0000    39.9533 </r>
       <r>    24.8057     0.1282    39.9731 </r>
       <r>    24.9597     0.1315    39.9933 </r>
       <r>    25.1137     0.0000    39.9933 </r>
       <r>    25.2677     0.0000    39.9933 </r>
       <r>    25.4217     0.0000    39.9933 </r>
       <r>    25.5757     0.0025    39.9937 </r>
       <r>    25.7297     0.0407    40.0000 </r>
       <r>    25.8837     0.0001    40.0000 </r>
       <r>    26.0376     0.0000    40.0000 </r>
       <r>    26.1916     0.0000    40.0000 </r>
       <r>    26.3456     0.0000    40.0000 </r>
       <r>    26.4996     0.0000    40.0000 </r>
       <r>    26.6536     0.0000    40.0000 </r>
       <r>    26.8076     0.0000    40.0000 </r>
       <r>    26.9616     0.0000    40.0000 </r>
       <r>    27.1156     0.0000    40.0000 </r>
       <r>    27.2696     0.0000    40.0000 </r>
       <r>    27.4236     0.0000    40.0000 </r>
       <r>    27.5776     0.0000    40.0000 </r>
       <r>    27.7316     0.0000    40.0000 </r>
      </set>
     </set>
    </array>
   </total>
   <partial>
    <array>
     <dimension dim="1">gridpoints</dimension>
     <dimension dim="2">spin</dimension>
     <dimension dim="3">ion</dimension>
     <field>energy</field>
     <field>    s</field>
     <field>   py</field>
     <field>   pz</field>
     <field>   px</field>
     <field>  dxy</field>
     <field>  dyz</field>
     <field>  dz2</field>
     <field>  dxz</field>
     <field>x2-y2</field>
     <set>
      <set comment="ion 1">
       <set comment="spin 1">
        <r>   -18.4670     0.0000     0.0000     0.0000     0.0000     0.0000     0.0000     0.0000     0.0000     0.0000 </r>
        <r>   -18.3130     0.0000     0.0000     0.0000     0.0000     0.0000     0.0000     0.0000     0.0000     0.0000 </r>
        <r>   -18.1590     0.0000     0.0000     0.0000     0.0000     0.0000     0.0000     0.0000     0.0000     0.0000 </r>
        <r>   -18.0050     0.0000     0.0000     0.0000     0.0000     0.0000     0.0000     0.0000     0.0000     0.0000 </r>
        <r>   -17.8510     0.0000     0.0000     0.0000     0.0000     0.0000     0.0000     0.0000     0.0000     0.0000 </r>
        <r>   -17.6970     0.0000     0.0000     0.0000     0.0000     0.0000     0.0000     0.0000     0.0000     0.0000 </r>
        <r>   -17.5430     0.0000     0.0000     0.0000     0.0000     0.0000     0.0000     0.0000     0.0000     0.0000 </r>
        <r>   -17.3890     0.0000     0.0000     0.0000     0.0000     0.0000     0.0000     0.0000     0.0000     0.0000 </r>
        <r>   -17.2350     0.0000     0.0000     0.0000     0.0000     0.0000     0.0000     0.0000     0.0000     0.0000 </r>
        <r>   -17.0810     0.0000     0.0000     0.0000     0.0000     0.0000     0.0000     0.0000     0.0000     0.0000 </r>
        <r>   -16.9270     0.0000     0.0000     0.0000     0.0000     0.0000     0.0000     0.0000     0.0000     0.0000 </r>
        <r>   -16.7730     0.0000     0.0000     0.0000     0.0000     0.0000     0.0000     0.0000     0.0000     0.0000 </r>
        <r>   -16.6190     0.0000     0.0000     0.0000     0.0000     0.0000     0.0000     0.0000     0.0000     0.0000 </r>
        <r>   -16.4650     0.0000     0.0000     0.0000     0.0000     0.0000     0.0000     0.0000     0.0000     0.0000 </r>
        <r>   -16.3110     0.0227     0.0000     0.0000     0.0000     0.0000     0.0000     0.0000     0.0000     0.0000 </r>
        <r>   -16.1570     0.0879     0.0007     0.0000     0.0022     0.0000     0.0000     0.0000     0.0000     0.0000 </r>
        <r>   -16.0030     0.1231     0.0012     0.0000     0.0036     0.0000     0.0000     0.0000     0.0000     0.0000 </r>
        <r>   -15.8490     0.0060     0.0000     0.0000     0.0007     0.0000     0.0000     0.0000     0.0000     0.0000 </r>
        <r>   -15.6951     0.1607     0.0002     0.0000     0.0199     0.0000     0.0000     0.0000     0.0000     0.0000 </r>
        <r>   -15.5411     0.1564     0.0060     0.0000     0.0204     0.0000     0.0000     0.0000     0.0000     0.0000 </r>
        <r>   -15.3871     0.0360     0.0016     0.0000     0.0047     0.0000     0.0000     0.0000     0.0000     0.0000 </r>
        <r>   -15.2331     0.0000     0.0000     0.0000     0.0000     0.0000     0.0000     0.0000     0.0000     0.0000 </r>
        <r>   -15.0791     0.0906     0.0018     0.0000     0.0302     0.0000     0.0000     0.0000     0.0000     0.0000 </r>
        <r>   -14.9251     0.2065     0.0041     0.0000     0.0689     0.0000     0.0000     0.0000     0.0000     0.0000 </r>
        <r>   -14.7711     0.0214     0.0026     0.0000     0.0082     0.0000     0.0000     0.0000     0.0000     0.0000 </r>
        <r>   -14.6171     0.1095     0.0142     0.0000     0.0425     0.0000     0.0000     0.0000     0.0000     0.0000 </r>
        <r>   -14.4631     0.0016     0.0002     0.0000     0.0006     0.0000     0.0000     0.0000     0.0000     0.0000 </r>
        <r>   -14.3091     0.0084     0.0004     0.0000     0.0065     0.0000     0.0000     0.0000     0.0000     0.0000 </r>
        <r>   -14.1551     0.1369     0.0095     0.0000     0.1101     0.0000     0.0000     0.0000     0.0000     0.0000 </r>
        <r>   -14.0011     0.1528     0.0186     0.0000     0.1326     0.0000     0.0000     0.0000     0.0000     0.0000 </r>
        <r>   -13.8471     0.0022     0.0007     0.0000     0.0025     0.0000     0.0000     0.0000     0.0000     0.0000 </r>
        <r>   -13.6931     0.0652     0.0274     0.0000     0.0823     0.0000     0.0000     0.0000     0.0000     0.0000 </r>
        <r>   -13.5391     0.0025     0.0010     0.0000     0.0031     0.0000     0.0000     0.0000     0.0000     0.0000 </r>
        <r>   -13.3851     0.0458     0.0188     0.0000     0.1035     0.0000     0.0000     0.0000     0.0000     0.0000 </r>
        <r>   -13.2311     0.1330     0.0948     0.0000     0.3810     0.0000     0.0000     0.0000     0.0000     0.0000 </r>
        <r>   -13.0771     0.0030     0.0036     0.0000     0.0114     0.0000     0.0000     0.0000     0.0000     0.0000 </r>
        <r>   -12.9231     0.0093     0.0366     0.0000     0.0717     0.0000     0.0000     0.0000     0.0000     0.0000 </r>
        <r>   -12.7691     0.0108     0.0577     0.0000     0.1191     0.0000     0.0000     0.0000     0.0000     0.0000 </r>
        <r>   -12.6151     0.0012     0.0076     0.0000     0.0158     0.0000     0.0000     0.0000     0.0000     0.0000 </r>
        <r>   -12.4612     0.0000     0.0000     0.0000     0.0000     0.0000     0.0000     0.0000     0.0000     0.0000 </r>
        <r>   -12.3072     0.0000     0.0000     0.0000     0.0000     0.0000     0.0000     0.0000     0.0000     0.0000 </r>
        <r>   -12.1532     0.0000     0.0000     0.0000     0.0000     0.0000     0.0000     0.0000     0.0000     0.0000 </r>
        <r>   -11.9992     0.0000     0.0000     0.0000     0.0000     0.0000     0.0000     0.0000     0.0000     0.0000 </r>
        <r>   -11.8452     0.0000     0.0000     0.0000     0.0000     0.0000     0.0000     0.0000     0.0000     0.0000 </r>
        <r>   -11.6912     0.0000     0.0000     0.0000     0.0000     0.0000     0.0000     0.0000     0.0000     0.0000 </r>
        <r>   -11.5372     0.0000     0.0000     0.0000     0.0000     0.0000     0.0000     0.0000     0.0000     0.0000 </r>
        <r>   -11.3832     0.0000     0.0000     0.0000     0.0000     0.0000     0.0000     0.0000     0.0000     0.0000 </r>
        <r>   -11.2292     0.0000     0.0000     0.0000     0.0000     0.0000     0.0000     0.0000     0.0000     0.0000 </r>
        <r>   -11.0752     0.0000     0.0000     0.0000     0.0000     0.0000     0.0000     0.0000     0.0000     0.0000 </r>
        <r>   -10.9212     0.0000     0.0000     0.0000     0.0000     0.0000     0.0000     0.0000     0.0000     0.0000 </r>
        <r>   -10.7672     0.0000     0.0000     0.0000     0.0000     0.0000     0.0000     0.0000     0.0000     0.0000 </r>
        <r>   -10.6132     0.0000     0.0000     0.0000     0.0000     0.0000     0.0000     0.0000     0.0000     0.0000 </r>
        <r>   -10.4592     0.0000     0.0000     0.0000     0.0000     0.0000     0.0000     0.0000     0.0000     0.0000 </r>
        <r>   -10.3052     0.0000     0.0000     0.0000     0.0000     0.0000     0.0000     0.0000     0.0000     0.0000 </r>
        <r>   -10.1512     0.0000     0.0000     0.0000     0.0000     0.0000     0.0000     0.0000     0.0000     0.0000 </r>
        <r>    -9.9972     0.0000     0.0000     0.0000     0.0000     0.0000     0.0000     0.0000     0.0000     0.0000 </r>
        <r>    -9.8432     0.0000     0.0000     0.0000     0.0000     0.0000     0.0000     0.0000     0.0000     0.0000 </r>
        <r>    -9.6892     0.0000     0.0000     0.0000     0.0000     0.0000     0.0000     0.0000     0.0000     0.0000 </r>
        <r>    -9.5352     0.0000     0.0000     0.0000     0.0000     0.0000     0.0000     0.0000     0.0000     0.0000 </r>
        <r>    -9.3812     0.0000     0.0000     0.0000     0.0000     0.0000     0.0000     0.0000     0.0000     0.0000 </r>
        <r>    -9.2273     0.0000     0.0000     0.0000     0.0000     0.0000     0.0000     0.0000     0.0000     0.0000 </r>
        <r>    -9.0733     0.0000     0.0000     0.0000     0.0000     0.0000     0.0000     0.0000     0.0000     0.0000 </r>
        <r>    -8.9193     0.0000     0.0000     0.0000     0.0000     0.0000     0.0000     0.0000     0.0000     0.0000 </r>
        <r>    -8.7653     0.0000     0.0000     0.0000     0.0000     0.0000     0.0000     0.0000     0.0000     0.0000 </r>
        <r>    -8.6113     0.0000     0.0000     0.0000     0.0000     0.0000     0.0000     0.0000     0.0000     0.0000 </r>
        <r>    -8.4573     0.0000     0.0000     0.0000     0.0000     0.0000     0.0000     0.0000     0.0000     0.0000 </r>
        <r>    -8.3033     0.0000     0.0000     0.0000     0.0000     0.0000     0.0000     0.0000     0.0000     0.0000 </r>
        <r>    -8.1493     0.0000     0.0000     0.0000     0.0000     0.0000     0.0000     0.0000     0.0000     0.0000 </r>
        <r>    -7.9953     0.0000     0.0000     0.0000     0.0000     0.0000     0.0000     0.0000     0.0000     0.0000 </r>
        <r>    -7.8413     0.0000     0.0000     0.0000     0.0000     0.0000     0.0000     0.0000     0.0000     0.0000 </r>
        <r>    -7.6873     0.0001     0.0000     0.0000     0.0000     0.0000     0.0000     0.0000     0.0000     0.0000 </r>
        <r>    -7.5333     0.1046     0.0050     0.0000     0.0149     0.0000     0.0000     0.0000     0.0000     0.0000 </r>
        <r>    -7.3793     0.0241     0.0011     0.0000     0.0033     0.0000     0.0000     0.0000     0.0000     0.0000 </r>
        <r>    -7.2253     0.3059     0.0524     0.0000     0.0437     0.0000     0.0000     0.0000     0.0000     0.0000 </r>
        <r>    -7.0713     0.3149     0.0697     0.0000     0.0720     0.0000     0.0000     0.0000     0.0000     0.0000 </r>
        <r>    -6.9173     0.0281     0.0077     0.0000     0.0088     0.0000     0.0000     0.0000     0.0000     0.0000 </r>
        <r>    -6.7633     0.0797     0.0079     0.0000     0.0229     0.0000     0.0000     0.0000     0.0000     0.0000 </r>
        <r>    -6.6093     0.2128     0.1407     0.0000     0.0884     0.0000     0.0000     0.0000     0.0000     0.0000 </r>
        <r>    -6.4553     0.2680     0.1982     0.0000     0.0261     0.0000     0.0000     0.0000     0.0000     0.0000 </r>
        <r>    -6.3013     0.0565     0.0409     0.0000     0.0045     0.0000     0.0000     0.0000     0.0000     0.0000 </r>
        <r>    -6.1473     0.0000     0.0000     0.0000     0.0000     0.0000     0.0000     0.0000     0.0000     0.0000 </r>
        <r>    -5.9934     0.0000     0.0000     0.0000     0.0000     0.0000     0.0000     0.0000     0.0000     0.0000 </r>
        <r>    -5.8394     0.2115     0.0919     0.0000     0.0568     0.0000     0.0000     0.0000     0.0000     0.0000 </r>
        <r>    -5.6854     0.1139     0.0496     0.0000     0.0303     0.0000     0.0000     0.0000     0.0000     0.0000 </r>
        <r>    -5.5314     0.1299     0.0151     0.0000     0.0285     0.0000     0.0000     0.0000     0.0000     0.0000 </r>
        <r>    -5.3774     0.1197     0.0137     0.0000     0.0262     0.0000     0.0000     0.0000     0.0000     0.0000 </r>
        <r>    -5.2234     0.0281     0.0300     0.0000     0.0031     0.0000     0.0000     0.0000     0.0000     0.0000 </r>
        <r>    -5.0694     0.0923     0.0988     0.0000     0.0102     0.0000     0.0000     0.0000     0.0000     0.0000 </r>
        <r>    -4.9154     0.0309     0.0073     0.0000     0.0219     0.0000     0.0000     0.0000     0.0000     0.0000 </r>
        <r>    -4.7614     0.1064     0.0250     0.0000     0.0751     0.0000     0.0000     0.0000     0.0000     0.0000 </r>
        <r>    -4.6074     0.0828     0.0808     0.0000     0.0349     0.0000     0.0000     0.0000     0.0000     0.0000 </r>
        <r>    -4.4534     0.0466     0.0454     0.0011     0.0196     0.0000     0.0000     0.0000     0.0000     0.0000 </r>
        <r>    -4.2994     0.1886     0.1491     0.0029     0.1572     0.0000     0.0000     0.0000     0.0000     0.0000 </r>
        <r>    -4.1454     0.0465     0.0365     0.0256     0.0386     0.0000     0.0000     0.0000     0.0000     0.0000 </r>
        <r>    -3.9914     0.0011     0.0010     0.0088     0.0008     0.0000     0.0000     0.0000     0.0000     0.0000 </r>
        <r>    -3.8374     0.1907     0.1608     0.0486     0.1302     0.0000     0.0000     0.0000     0.0000     0.0000 </r>
        <r>    -3.6834     0.0084     0.0071     0.0052     0.0057     0.0000     0.0000     0.0000     0.0000     0.0000 </r>
        <r>    -3.5294     0.0002     0.0002     0.0267     0.0003     0.0000     0.0000     0.0000     0.0000     0.0000 </r>
        <r>    -3.3754     0.0781     0.1222     0.0912     0.1353     0.0000     0.0000     0.0000     0.0000     0.0000 </r>
        <r>    -3.2214     0.0713     0.3267     0.0375     0.1467     0.0000     0.0000     0.0000     0.0000     0.0000 </r>
        <r>    -3.0674     0.0004     0.0009     0.0599     0.0010     0.0000     0.0000     0.0000     0.0000     0.0000 </r>
        <r>    -2.9134     0.0312     0.1546     0.0251     0.0933     0.0000     0.0000     0.0000     0.0000     0.0000 </r>
        <r>    -2.7595     0.0476     0.2748     0.0375     0.1589     0.0000     0.0000     0.0000     0.0000     0.0000 </r>
        <r>    -2.6055     0.0561     0.1965     0.0692     0.1498     0.0000     0.0000     0.0000     0.0000     0.0000 </r>
        <r>    -2.4515     0.0038     0.0509     0.0589     0.0220     0.0000     0.0000     0.0000     0.0000     0.0000 </r>
        <r>    -2.2975     0.0001     0.0005     0.0928     0.0001     0.0000     0.0000     0.0000     0.0000     0.0000 </r>
        <r>    -2.1435     0.0143     0.0951     0.0170     0.0668     0.0000     0.0000     0.0000     0.0000     0.0000 </r>
        <r>    -1.9895     0.0813     0.4513     0.0225     0.3155     0.0000     0.0000     0.0000     0.0000     0.0000 </r>
        <r>    -1.8355     0.0032     0.0089     0.1095     0.0078     0.0000     0.0000     0.0000     0.0000     0.0000 </r>
        <r>    -1.6815     0.0000     0.0000     0.0224     0.0000     0.0000     0.0000     0.0000     0.0000     0.0000 </r>
        <r>    -1.5275     0.0000     0.0000     0.0347     0.0000     0.0000     0.0000     0.0000     0.0000     0.0000 </r>
        <r>    -1.3735     0.0001     0.0000     0.0460     0.0000     0.0000     0.0000     0.0000     0.0000     0.0000 </r>
        <r>    -1.2195     0.0001     0.1234     0.0887     0.0413     0.0000     0.0000     0.0000     0.0000     0.0000 </r>
        <r>    -1.0655     0.0076     0.2240     0.0606     0.0918     0.0000     0.0000     0.0000     0.0000     0.0000 </r>
        <r>    -0.9115     0.0012     0.0068     0.0253     0.0083     0.0000     0.0000     0.0000     0.0000     0.0000 </r>
        <r>    -0.7575     0.0224     0.0475     0.0339     0.1425     0.0000     0.0000     0.0000     0.0000     0.0000 </r>
        <r>    -0.6035     0.0002     0.0003     0.0957     0.0007     0.0000     0.0000     0.0000     0.0000     0.0000 </r>
        <r>    -0.4495     0.0000     0.0401     0.0622     0.0134     0.0000     0.0000     0.0000     0.0000     0.0000 </r>
        <r>    -0.2955     0.0000     0.1283     0.0080     0.0428     0.0000     0.0000     0.0000     0.0000     0.0000 </r>
        <r>    -0.1415     0.0000     0.0006     0.0287     0.0006     0.0000     0.0000     0.0000     0.0000     0.0000 </r>
        <r>     0.0125     0.0000     0.0343     0.0455     0.0343     0.0000     0.0000     0.0000     0.0000     0.0000 </r>
        <r>     0.1665     0.0000     0.0005     0.0770     0.0005     0.0000     0.0000     0.0000     0.0000     0.0000 </r>
        <r>     0.3205     0.0000     0.0000     0.0635     0.0000     0.0000     0.0000     0.0000     0.0000     0.0000 </r>
        <r>     0.4744     0.0001     0.0000     0.0837     0.0001     0.0000     0.0000     0.0000     0.0000     0.0000 </r>
        <r>     0.6284     0.0000     0.0000     0.0441     0.0000     0.0000     0.0000     0.0000     0.0000     0.0000 </r>
        <r>     0.7824     0.0000     0.0000     0.0052     0.0000     0.0000     0.0000     0.0000     0.0000     0.0000 </r>
        <r>     0.9364     0.0000     0.0000     0.0168     0.0000     0.0000     0.0000     0.0000     0.0000     0.0000 </r>
        <r>     1.0904     0.0000     0.0000     0.0201     0.0000     0.0000     0.0000     0.0000     0.0000     0.0000 </r>
        <r>     1.2444     0.0000     0.0000     0.0055     0.0000     0.0000     0.0000     0.0000     0.0000     0.0000 </r>
        <r>     1.3984     0.0000     0.0000     0.0005     0.0000     0.0000     0.0000     0.0000     0.0000     0.0000 </r>
        <r>     1.5524     0.0000     0.0000     0.0000     0.0000     0.0000     0.0000     0.0000     0.0000     0.0000 </r>
        <r>     1.7064     0.0000     0.0000     0.0000     0.0000     0.0000     0.0000     0.0000     0.0000     0.0000 </r>
        <r>     1.8604     0.0000     0.0000     0.0000     0.0000     0.0000     0.0000     0.0000     0.0000     0.0000 </r>
        <r>     2.0144     0.0000     0.0000     0.0000     0.0000     0.0000     0.0000     0.0000     0.0000     0.0000 </r>
        <r>     2.1684     0.0000     0.0000     0.0000     0.0000     0.0000     0.0000     0.0000     0.0000     0.0000 </r>
        <r>     2.3224     0.0000     0.0000     0.0000     0.0000     0.0000     0.0000     0.0000     0.0000     0.0000 </r>
        <r>     2.4764     0.0000     0.0000     0.0000     0.0000     0.0000     0.0000     0.0000     0.0000     0.0000 </r>
        <r>     2.6304     0.0000     0.0000     0.0000     0.0000     0.0000     0.0000     0.0000     0.0000     0.0000 </r>
        <r>     2.7844     0.0000     0.0000     0.0000     0.0000     0.0000     0.0000     0.0000     0.0000     0.0000 </r>
        <r>     2.9384     0.0000     0.0000     0.0000     0.0000     0.0000     0.0000     0.0000     0.0000     0.0000 </r>
        <r>     3.0924     0.0000     0.0000     0.0000     0.0000     0.0000     0.0000     0.0000     0.0000     0.0000 </r>
        <r>     3.2464     0.0000     0.0000     0.0000     0.0000     0.0000     0.0000     0.0000     0.0000     0.0000 </r>
        <r>     3.4004     0.0000     0.0000     0.0000     0.0000     0.0000     0.0000     0.0000     0.0000     0.0000 </r>
        <r>     3.5543     0.0000     0.0000     0.0000     0.0000     0.0000     0.0000     0.0000     0.0000     0.0000 </r>
        <r>     3.7083     0.0000     0.0000     0.0000     0.0000     0.0000     0.0000     0.0000     0.0000     0.0000 </r>
        <r>     3.8623     0.0000     0.0000     0.0000     0.0000     0.0000     0.0000     0.0000     0.0000     0.0000 </r>
        <r>     4.0163     0.0000     0.0000     0.0000     0.0000     0.0000     0.0000     0.0000     0.0000     0.0000 </r>
        <r>     4.1703     0.0000     0.0000     0.0000     0.0000     0.0000     0.0000     0.0000     0.0000     0.0000 </r>
        <r>     4.3243     0.0000     0.0000     0.0000     0.0000     0.0000     0.0000     0.0000     0.0000     0.0000 </r>
        <r>     4.4783     0.0000     0.0000     0.0000     0.0000     0.0000     0.0000     0.0000     0.0000     0.0000 </r>
        <r>     4.6323     0.0000     0.0000     0.0000     0.0000     0.0000     0.0000     0.0000     0.0000     0.0000 </r>
        <r>     4.7863     0.0000     0.0000     0.0000     0.0000     0.0000     0.0000     0.0000     0.0000     0.0000 </r>
        <r>     4.9403     0.0000     0.0000     0.0000     0.0000     0.0000     0.0000     0.0000     0.0000     0.0000 </r>
        <r>     5.0943     0.0000     0.0000     0.0000     0.0000     0.0000     0.0000     0.0000     0.0000     0.0000 </r>
        <r>     5.2483     0.0000     0.0000     0.0000     0.0000     0.0000     0.0000     0.0000     0.0000     0.0000 </r>
        <r>     5.4023     0.0000     0.0000     0.0000     0.0000     0.0000     0.0000     0.0000     0.0000     0.0000 </r>
        <r>     5.5563     0.0000     0.0000     0.0000     0.0000     0.0000     0.0000     0.0000     0.0000     0.0000 </r>
[...]
        <r>  0.0138  0.0353  0.0131  0.0022  0.0000  0.0000  0.0000  0.0000  0.0000 </r>
       </set>
       <set comment="band 14">
        <r>  0.0431  0.0283  0.0062  0.0227  0.0000  0.0000  0.0000  0.0000  0.0000 </r>
        <r>  0.0640  0.0308  0.0006  0.0276  0.0000  0.0000  0.0000  0.0000  0.0000 </r>
        <r>  0.0196  0.0598  0.0020  0.0000  0.0000  0.0000  0.0000  0.0000  0.0000 </r>
        <r>  0.0208  0.0674  0.0028  0.0029  0.0000  0.0000  0.0000  0.0000  0.0000 </r>
       </set>
       <set comment="band 15">
        <r>  0.0007  0.0053  0.0132  0.0042  0.0000  0.0000  0.0000  0.0000  0.0000 </r>
        <r>  0.0064  0.0324  0.0012  0.0172  0.0000  0.0000  0.0000  0.0000  0.0000 </r>
        <r>  0.0012  0.0005  0.0067  0.0023  0.0000  0.0000  0.0000  0.0000  0.0000 </r>
        <r>  0.0140  0.0432  0.0018  0.0499  0.0000  0.0000  0.0000  0.0000  0.0000 </r>
       </set>
       <set comment="band 16">
        <r>  0.0451  0.0162  0.0034  0.0037  0.0000  0.0000  0.0000  0.0000  0.0000 </r>
        <r>  0.0063  0.0188  0.0234  0.0117  0.0000  0.0000  0.0000  0.0000  0.0000 </r>
        <r>  0.0139  0.0358  0.0015  0.0380  0.0000  0.0000  0.0000  0.0000  0.0000 </r>
        <r>  0.0076  0.0068  0.0013  0.0112  0.0000  0.0000  0.0000  0.0000  0.0000 </r>
       </set>
       <set comment="band 17">
        <r>  0.0350  0.1157  0.0002  0.0918  0.0000  0.0000  0.0000  0.0000  0.0000 </r>
        <r>  0.0155  0.0108  0.0095  0.0041  0.0000  0.0000  0.0000  0.0000  0.0000 </r>
        <r>  0.0276  0.0479  0.0012  0.0288  0.0000  0.0000  0.0000  0.0000  0.0000 </r>
        <r>  0.0052  0.0165  0.0075  0.0108  0.0000  0.0000  0.0000  0.0000  0.0000 </r>
       </set>
       <set comment="band 18">
        <r>  0.0044  0.0005  0.0038  0.0013  0.0000  0.0000  0.0000  0.0000  0.0000 </r>
        <r>  0.0444  0.1173  0.0075  0.0733  0.0000  0.0000  0.0000  0.0000  0.0000 </r>
        <r>  0.0023  0.0032  0.0020  0.0022  0.0000  0.0000  0.0000  0.0000  0.0000 </r>
        <r>  0.0293  0.0425  0.0003  0.0015  0.0000  0.0000  0.0000  0.0000  0.0000 </r>
       </set>
       <set comment="band 19">
        <r>  0.0151  0.0588  0.0006  0.0172  0.0000  0.0000  0.0000  0.0000  0.0000 </r>
        <r>  0.0186  0.0184  0.0165  0.0054  0.0000  0.0000  0.0000  0.0000  0.0000 </r>
        <r>  0.0382  0.0223  0.0025  0.0530  0.0000  0.0000  0.0000  0.0000  0.0000 </r>
        <r>  0.0138  0.0203  0.0081  0.0029  0.0000  0.0000  0.0000  0.0000  0.0000 </r>
       </set>
       <set comment="band 20">
        <r>  0.0007  0.0503  0.0068  0.0044  0.0000  0.0000  0.0000  0.0000  0.0000 </r>
        <r>  0.0264  0.0079  0.0188  0.0232  0.0000  0.0000  0.0000  0.0000  0.0000 </r>
        <r>  0.0042  0.0135  0.0424  0.0695  0.0000  0.0000  0.0000  0.0000  0.0000 </r>
        <r>  0.0086  0.0054  0.0001  0.0344  0.0000  0.0000  0.0000  0.0000  0.0000 </r>
       </set>
      </set>
      <set comment="kpoint 27">
       <set comment="band 1">
        <r>  0.0165  0.0652  0.0000  0.1278  0.0000  0.0000  0.0000  0.0000  0.0000 </r>
        <r>  0.0004  0.0013  0.0000  0.0025  0.0000  0.0000  0.0000  0.0000  0.0000 </r>
        <r>  0.6262  0.0012  0.0000  0.0007  0.0000  0.0000  0.0000  0.0000  0.0000 </r>
        <r>  0.0124  0.0000  0.0000  0.0000  0.0000  0.0000  0.0000  0.0000  0.0000 </r>
       </set>
       <set comment="band 2">
        <r>  0.0004  0.0013  0.0000  0.0025  0.0000  0.0000  0.0000  0.0000  0.0000 </r>
        <r>  0.0165  0.0652  0.0000  0.1278  0.0000  0.0000  0.0000  0.0000  0.0000 </r>
        <r>  0.0126  0.0000  0.0000  0.0000  0.0000  0.0000  0.0000  0.0000  0.0000 </r>
        <r>  0.6263  0.0012  0.0000  0.0007  0.0000  0.0000  0.0000  0.0000  0.0000 </r>
       </set>
       <set comment="band 3">
        <r>  0.2217  0.0593  0.0000  0.0690  0.0000  0.0000  0.0000  0.0000  0.0000 </r>
        <r>  0.0235  0.0064  0.0000  0.0072  0.0000  0.0000  0.0000  0.0000  0.0000 </r>
        <r>  0.0013  0.0904  0.0000  0.2613  0.0000  0.0000  0.0000  0.0000  0.0000 </r>
        <r>  0.0002  0.0096  0.0000  0.0277  0.0000  0.0000  0.0000  0.0000  0.0000 </r>
       </set>
       <set comment="band 4">
        <r>  0.0234  0.0066  0.0000  0.0074  0.0000  0.0000  0.0000  0.0000  0.0000 </r>
        <r>  0.2215  0.0595  0.0000  0.0692  0.0000  0.0000  0.0000  0.0000  0.0000 </r>
        <r>  0.0002  0.0098  0.0000  0.0281  0.0000  0.0000  0.0000  0.0000  0.0000 </r>
        <r>  0.0013  0.0906  0.0000  0.2615  0.0000  0.0000  0.0000  0.0000  0.0000 </r>
       </set>
       <set comment="band 5">
        <r>  0.1571  0.1534  0.0000  0.0662  0.0000  0.0000  0.0000  0.0000  0.0000 </r>
        <r>  0.0091  0.0082  0.0000  0.0035  0.0000  0.0000  0.0000  0.0000  0.0000 </r>
        <r>  0.0074  0.3150  0.0000  0.1074  0.0000  0.0000  0.0000  0.0000  0.0000 </r>
        <r>  0.0004  0.0173  0.0000  0.0059  0.0000  0.0000  0.0000  0.0000  0.0000 </r>
       </set>
       <set comment="band 6">
        <r>  0.0088  0.0085  0.0000  0.0036  0.0000  0.0000  0.0000  0.0000  0.0000 </r>
        <r>  0.1568  0.1537  0.0000  0.0662  0.0000  0.0000  0.0000  0.0000  0.0000 </r>
        <r>  0.0005  0.0175  0.0000  0.0060  0.0000  0.0000  0.0000  0.0000  0.0000 </r>
        <r>  0.0075  0.3151  0.0000  0.1074  0.0000  0.0000  0.0000  0.0000  0.0000 </r>
       </set>
       <set comment="band 7">
        <r>  0.0000  0.0000  0.0245  0.0000  0.0000  0.0000  0.0000  0.0000  0.0000 </r>
        <r>  0.0001  0.0000  0.0175  0.0000  0.0000  0.0000  0.0000  0.0000  0.0000 </r>
        <r>  0.0000  0.0000  0.3611  0.0000  0.0000  0.0000  0.0000  0.0000  0.0000 </r>
        <r>  0.0000  0.0001  0.1903  0.0002  0.0000  0.0000  0.0000  0.0000  0.0000 </r>
       </set>
       <set comment="band 8">
        <r>  0.0000  0.0000  0.0161  0.0000  0.0000  0.0000  0.0000  0.0000  0.0000 </r>
        <r>  0.0000  0.0000  0.0230  0.0000  0.0000  0.0000  0.0000  0.0000  0.0000 </r>
        <r>  0.0000  0.0000  0.1969  0.0001  0.0000  0.0000  0.0000  0.0000  0.0000 </r>
        <r>  0.0000  0.0000  0.3687  0.0001  0.0000  0.0000  0.0000  0.0000  0.0000 </r>
       </set>
       <set comment="band 9">
        <r>  0.0000  0.0000  0.2666  0.0000  0.0000  0.0000  0.0000  0.0000  0.0000 </r>
        <r>  0.0000  0.0001  0.1872  0.0001  0.0000  0.0000  0.0000  0.0000  0.0000 </r>
        <r>  0.0002  0.0001  0.0333  0.0001  0.0000  0.0000  0.0000  0.0000  0.0000 </r>
        <r>  0.0001  0.0002  0.0108  0.0001  0.0000  0.0000  0.0000  0.0000  0.0000 </r>
       </set>
       <set comment="band 10">
        <r>  0.0000  0.0000  0.2008  0.0000  0.0000  0.0000  0.0000  0.0000  0.0000 </r>
        <r>  0.0000  0.0000  0.2804  0.0001  0.0000  0.0000  0.0000  0.0000  0.0000 </r>
        <r>  0.0003  0.0001  0.0090  0.0001  0.0000  0.0000  0.0000  0.0000  0.0000 </r>
        <r>  0.0001  0.0001  0.0304  0.0001  0.0000  0.0000  0.0000  0.0000  0.0000 </r>
       </set>
       <set comment="band 11">
        <r>  0.0615  0.0113  0.0006  0.0119  0.0000  0.0000  0.0000  0.0000  0.0000 </r>
        <r>  0.0017  0.0002  0.0198  0.0005  0.0000  0.0000  0.0000  0.0000  0.0000 </r>
        <r>  0.0356  0.0721  0.0019  0.0589  0.0000  0.0000  0.0000  0.0000  0.0000 </r>
        <r>  0.0006  0.0043  0.0095  0.0095  0.0000  0.0000  0.0000  0.0000  0.0000 </r>
       </set>
       <set comment="band 12">
        <r>  0.0012  0.0004  0.0056  0.0011  0.0000  0.0000  0.0000  0.0000  0.0000 </r>
        <r>  0.0708  0.0128  0.0008  0.0110  0.0000  0.0000  0.0000  0.0000  0.0000 </r>
        <r>  0.0001  0.0027  0.0199  0.0064  0.0000  0.0000  0.0000  0.0000  0.0000 </r>
        <r>  0.0529  0.0736  0.0007  0.0469  0.0000  0.0000  0.0000  0.0000  0.0000 </r>
       </set>
       <set comment="band 13">
        <r>  0.0004  0.0001  0.0296  0.0000  0.0000  0.0000  0.0000  0.0000  0.0000 </r>
        <r>  0.0463  0.0209  0.0004  0.0248  0.0000  0.0000  0.0000  0.0000  0.0000 </r>
        <r>  0.0007  0.0003  0.0149  0.0001  0.0000  0.0000  0.0000  0.0000  0.0000 </r>
        <r>  0.0074  0.0272  0.0069  0.0139  0.0000  0.0000  0.0000  0.0000  0.0000 </r>
       </set>
       <set comment="band 14">
        <r>  0.0578  0.0322  0.0021  0.0234  0.0000  0.0000  0.0000  0.0000  0.0000 </r>
        <r>  0.0101  0.0042  0.0026  0.0052  0.0000  0.0000  0.0000  0.0000  0.0000 </r>
        <r>  0.0439  0.0434  0.0005  0.0247  0.0000  0.0000  0.0000  0.0000  0.0000 </r>
        <r>  0.0018  0.0056  0.0281  0.0033  0.0000  0.0000  0.0000  0.0000  0.0000 </r>
       </set>
       <set comment="band 15">
        <r>  0.0067  0.0078  0.0335  0.0081  0.0000  0.0000  0.0000  0.0000  0.0000 </r>
        <r>  0.0060  0.0208  0.0013  0.0117  0.0000  0.0000  0.0000  0.0000  0.0000 </r>
        <r>  0.0016  0.0035  0.0055  0.0029  0.0000  0.0000  0.0000  0.0000  0.0000 </r>
        <r>  0.0195  0.0318  0.0017  0.0781  0.0000  0.0000  0.0000  0.0000  0.0000 </r>
       </set>
       <set comment="band 16">
        <r>  0.0357  0.0093  0.0011  0.0198  0.0000  0.0000  0.0000  0.0000  0.0000 </r>
        <r>  0.0088  0.0115  0.0402  0.0142  0.0000  0.0000  0.0000  0.0000  0.0000 </r>
        <r>  0.0005  0.0192  0.0008  0.0491  0.0000  0.0000  0.0000  0.0000  0.0000 </r>
        <r>  0.0024  0.0017  0.0015  0.0011  0.0000  0.0000  0.0000  0.0000  0.0000 </r>
       </set>
       <set comment="band 17">
        <r>  0.0003  0.0554  0.0022  0.0603  0.0000  0.0000  0.0000  0.0000  0.0000 </r>
        <r>  0.0031  0.0034  0.0215  0.0021  0.0000  0.0000  0.0000  0.0000  0.0000 </r>
        <r>  0.0013  0.0189  0.0057  0.0514  0.0000  0.0000  0.0000  0.0000  0.0000 </r>
        <r>  0.0020  0.0091  0.0045  0.0261  0.0000  0.0000  0.0000  0.0000  0.0000 </r>
       </set>
       <set comment="band 18">
        <r>  0.0149  0.0014  0.0039  0.0005  0.0000  0.0000  0.0000  0.0000  0.0000 </r>
        <r>  0.0021  0.0956  0.0067  0.1111  0.0000  0.0000  0.0000  0.0000  0.0000 </r>
        <r>  0.0011  0.0125  0.0009  0.0349  0.0000  0.0000  0.0000  0.0000  0.0000 </r>
        <r>  0.0125  0.0185  0.0005  0.0062  0.0000  0.0000  0.0000  0.0000  0.0000 </r>
       </set>
       <set comment="band 19">
        <r>  0.0127  0.1035  0.0054  0.0822  0.0000  0.0000  0.0000  0.0000  0.0000 </r>
        <r>  0.0024  0.0185  0.0210  0.0146  0.0000  0.0000  0.0000  0.0000  0.0000 </r>
        <r>  0.0699  0.0635  0.0047  0.0275  0.0000  0.0000  0.0000  0.0000  0.0000 </r>
        <r>  0.0139  0.0116  0.0086  0.0053  0.0000  0.0000  0.0000  0.0000  0.0000 </r>
       </set>
       <set comment="band 20">
        <r>  0.0031  0.0218  0.0040  0.0140  0.0000  0.0000  0.0000  0.0000  0.0000 </r>
        <r>  0.1007  0.0648  0.0019  0.0396  0.0000  0.0000  0.0000  0.0000  0.0000 </r>
        <r>  0.0146  0.0168  0.0280  0.0056  0.0000  0.0000  0.0000  0.0000  0.0000 </r>
        <r>  0.0217  0.0710  0.0029  0.0820  0.0000  0.0000  0.0000  0.0000  0.0000 </r>
       </set>
      </set>
      <set comment="kpoint 28">
       <set comment="band 1">
        <r>  0.0103  0.0630  0.0000  0.1326  0.0000  0.0000  0.0000  0.0000  0.0000 </r>
        <r>  0.0002  0.0011  0.0000  0.0023  0.0000  0.0000  0.0000  0.0000  0.0000 </r>
        <r>  0.6353  0.0001  0.0000  0.0020  0.0000  0.0000  0.0000  0.0000  0.0000 </r>
        <r>  0.0109  0.0000  0.0000  0.0000  0.0000  0.0000  0.0000  0.0000  0.0000 </r>
       </set>
       <set comment="band 2">
        <r>  0.0002  0.0011  0.0000  0.0023  0.0000  0.0000  0.0000  0.0000  0.0000 </r>
        <r>  0.0103  0.0631  0.0000  0.1326  0.0000  0.0000  0.0000  0.0000  0.0000 </r>
        <r>  0.0110  0.0000  0.0000  0.0000  0.0000  0.0000  0.0000  0.0000  0.0000 </r>
        <r>  0.6354  0.0001  0.0000  0.0020  0.0000  0.0000  0.0000  0.0000  0.0000 </r>
       </set>
       <set comment="band 3">
        <r>  0.1110  0.1729  0.0000  0.0688  0.0000  0.0000  0.0000  0.0000  0.0000 </r>
        <r>  0.0040  0.0070  0.0000  0.0027  0.0000  0.0000  0.0000  0.0000  0.0000 </r>
        <r>  0.0079  0.0381  0.0000  0.3492  0.0000  0.0000  0.0000  0.0000  0.0000 </r>
        <r>  0.0004  0.0017  0.0000  0.0134  0.0000  0.0000  0.0000  0.0000  0.0000 </r>
       </set>
       <set comment="band 4">
        <r>  0.0034  0.0071  0.0000  0.0032  0.0000  0.0000  0.0000  0.0000  0.0000 </r>
        <r>  0.1102  0.1731  0.0000  0.0692  0.0000  0.0000  0.0000  0.0000  0.0000 </r>
        <r>  0.0002  0.0022  0.0000  0.0133  0.0000  0.0000  0.0000  0.0000  0.0000 </r>
        <r>  0.0077  0.0386  0.0000  0.3488  0.0000  0.0000  0.0000  0.0000  0.0000 </r>
       </set>
       <set comment="band 5">
        <r>  0.3082  0.0357  0.0000  0.0676  0.0000  0.0000  0.0000  0.0000  0.0000 </r>
        <r>  0.0128  0.0009  0.0000  0.0022  0.0000  0.0000  0.0000  0.0000  0.0000 </r>
        <r>  0.0002  0.3653  0.0000  0.0331  0.0000  0.0000  0.0000  0.0000  0.0000 </r>
        <r>  0.0000  0.0131  0.0000  0.0020  0.0000  0.0000  0.0000  0.0000  0.0000 </r>
       </set>
       <set comment="band 6">
        <r>  0.0120  0.0012  0.0000  0.0026  0.0000  0.0000  0.0000  0.0000  0.0000 </r>
        <r>  0.3076  0.0360  0.0000  0.0680  0.0000  0.0000  0.0000  0.0000  0.0000 </r>
        <r>  0.0000  0.0138  0.0000  0.0015  0.0000  0.0000  0.0000  0.0000  0.0000 </r>
        <r>  0.0002  0.3658  0.0000  0.0328  0.0000  0.0000  0.0000  0.0000  0.0000 </r>
       </set>
       <set comment="band 7">
        <r>  0.0000  0.0000  0.0141  0.0000  0.0000  0.0000  0.0000  0.0000  0.0000 </r>
        <r>  0.0001  0.0000  0.0100  0.0000  0.0000  0.0000  0.0000  0.0000  0.0000 </r>
        <r>  0.0000  0.0000  0.3724  0.0000  0.0000  0.0000  0.0000  0.0000  0.0000 </r>
        <r>  0.0000  0.0001  0.1996  0.0002  0.0000  0.0000  0.0000  0.0000  0.0000 </r>
       </set>
       <set comment="band 8">
        <r>  0.0000  0.0000  0.0068  0.0000  0.0000  0.0000  0.0000  0.0000  0.0000 </r>
        <r>  0.0000  0.0000  0.0112  0.0000  0.0000  0.0000  0.0000  0.0000  0.0000 </r>
        <r>  0.0000  0.0000  0.2089  0.0001  0.0000  0.0000  0.0000  0.0000  0.0000 </r>
        <r>  0.0000  0.0000  0.3826  0.0001  0.0000  0.0000  0.0000  0.0000  0.0000 </r>
       </set>
       <set comment="band 9">
        <r>  0.0000  0.0000  0.4277  0.0000  0.0000  0.0000  0.0000  0.0000  0.0000 </r>
        <r>  0.0000  0.0001  0.0725  0.0001  0.0000  0.0000  0.0000  0.0000  0.0000 </r>
        <r>  0.0001  0.0000  0.0292  0.0000  0.0000  0.0000  0.0000  0.0000  0.0000 </r>
        <r>  0.0000  0.0002  0.0061  0.0002  0.0000  0.0000  0.0000  0.0000  0.0000 </r>
       </set>
       <set comment="band 10">
        <r>  0.0000  0.0001  0.0805  0.0001  0.0000  0.0000  0.0000  0.0000  0.0000 </r>
        <r>  0.0000  0.0000  0.4367  0.0000  0.0000  0.0000  0.0000  0.0000  0.0000 </r>
        <r>  0.0003  0.0000  0.0006  0.0000  0.0000  0.0000  0.0000  0.0000  0.0000 </r>
        <r>  0.0000  0.0000  0.0221  0.0001  0.0000  0.0000  0.0000  0.0000  0.0000 </r>
       </set>
       <set comment="band 11">
        <r>  0.0127  0.0007  0.0003  0.0000  0.0000  0.0000  0.0000  0.0000  0.0000 </r>
        <r>  0.0006  0.0003  0.0103  0.0003  0.0000  0.0000  0.0000  0.0000  0.0000 </r>
        <r>  0.0041  0.0328  0.0013  0.0570  0.0000  0.0000  0.0000  0.0000  0.0000 </r>
        <r>  0.0018  0.0004  0.0035  0.0094  0.0000  0.0000  0.0000  0.0000  0.0000 </r>
       </set>
       <set comment="band 12">
        <r>  0.0011  0.0000  0.0169  0.0001  0.0000  0.0000  0.0000  0.0000  0.0000 </r>
        <r>  0.0034  0.0003  0.0012  0.0012  0.0000  0.0000  0.0000  0.0000  0.0000 </r>
        <r>  0.0000  0.0039  0.0091  0.0011  0.0000  0.0000  0.0000  0.0000  0.0000 </r>
        <r>  0.0067  0.0087  0.0052  0.0126  0.0000  0.0000  0.0000  0.0000  0.0000 </r>
       </set>
       <set comment="band 13">
        <r>  0.0002  0.0001  0.0004  0.0009  0.0000  0.0000  0.0000  0.0000  0.0000 </r>
        <r>  0.0560  0.0033  0.0002  0.0011  0.0000  0.0000  0.0000  0.0000  0.0000 </r>
        <r>  0.0019  0.0013  0.0056  0.0004  0.0000  0.0000  0.0000  0.0000  0.0000 </r>
        <r>  0.0037  0.0892  0.0014  0.1078  0.0000  0.0000  0.0000  0.0000  0.0000 </r>
       </set>
       <set comment="band 14">
        <r>  0.0347  0.0049  0.0184  0.0008  0.0000  0.0000  0.0000  0.0000  0.0000 </r>
        <r>  0.0190  0.0059  0.0002  0.0000  0.0000  0.0000  0.0000  0.0000  0.0000 </r>
        <r>  0.0061  0.0258  0.0010  0.0641  0.0000  0.0000  0.0000  0.0000  0.0000 </r>
        <r>  0.0024  0.0788  0.0001  0.0010  0.0000  0.0000  0.0000  0.0000  0.0000 </r>
       </set>
       <set comment="band 15">
        <r>  0.0313  0.0196  0.0009  0.0008  0.0000  0.0000  0.0000  0.0000  0.0000 </r>
        <r>  0.0042  0.0033  0.0029  0.0020  0.0000  0.0000  0.0000  0.0000  0.0000 </r>
        <r>  0.0080  0.1576  0.0009  0.0101  0.0000  0.0000  0.0000  0.0000  0.0000 </r>
        <r>  0.0000  0.0020  0.0191  0.0082  0.0000  0.0000  0.0000  0.0000  0.0000 </r>
       </set>
       <set comment="band 16">
        <r>  0.0605  0.0075  0.0069  0.0024  0.0000  0.0000  0.0000  0.0000  0.0000 </r>
        <r>  0.0027  0.0455  0.0001  0.0153  0.0000  0.0000  0.0000  0.0000  0.0000 </r>
        <r>  0.0091  0.0401  0.0003  0.0607  0.0000  0.0000  0.0000  0.0000  0.0000 </r>
        <r>  0.0197  0.0696  0.0000  0.0446  0.0000  0.0000  0.0000  0.0000  0.0000 </r>
       </set>
       <set comment="band 17">
        <r>  0.0088  0.1461  0.0000  0.1339  0.0000  0.0000  0.0000  0.0000  0.0000 </r>
        <r>  0.0175  0.0157  0.0321  0.0117  0.0000  0.0000  0.0000  0.0000  0.0000 </r>
        <r>  0.0205  0.0017  0.0018  0.0125  0.0000  0.0000  0.0000  0.0000  0.0000 </r>
        <r>  0.0054  0.0066  0.0013  0.0097  0.0000  0.0000  0.0000  0.0000  0.0000 </r>
       </set>
       <set comment="band 18">
        <r>  0.0016  0.0001  0.0072  0.0001  0.0000  0.0000  0.0000  0.0000  0.0000 </r>
        <r>  0.0115  0.1890  0.0154  0.1831  0.0000  0.0000  0.0000  0.0000  0.0000 </r>
        <r>  0.0059  0.0001  0.0073  0.0025  0.0000  0.0000  0.0000  0.0000  0.0000 </r>
        <r>  0.0648  0.0018  0.0000  0.0010  0.0000  0.0000  0.0000  0.0000  0.0000 </r>
       </set>
       <set comment="band 19">
        <r>  0.0020  0.0949  0.0003  0.0892  0.0000  0.0000  0.0000  0.0000  0.0000 </r>
        <r>  0.0144  0.0195  0.0221  0.0132  0.0000  0.0000  0.0000  0.0000  0.0000 </r>
        <r>  0.1117  0.0022  0.0000  0.0171  0.0000  0.0000  0.0000  0.0000  0.0000 </r>
        <r>  0.0226  0.0103  0.0087  0.0000  0.0000  0.0000  0.0000  0.0000  0.0000 </r>
       </set>
       <set comment="band 20">
        <r>  0.0054  0.0145  0.0029  0.0051  0.0000  0.0000  0.0000  0.0000  0.0000 </r>
        <r>  0.0797  0.0199  0.0032  0.0254  0.0000  0.0000  0.0000  0.0000  0.0000 </r>
        <r>  0.0081  0.0162  0.0317  0.0138  0.0000  0.0000  0.0000  0.0000  0.0000 </r>
        <r>  0.0347  0.0154  0.0003  0.0767  0.0000  0.0000  0.0000  0.0000  0.0000 </r>
       </set>
      </set>
     </set>
    </set>
   </array>
  </projected>
 </calculation>
 <structure name="finalpos" >
  <crystal>
   <varray name="basis" >
    <v>       1.25623732      -2.17586686       0.00000000 </v>
    <v>       1.25623732       2.17586686       0.00000000 </v>
    <v>       0.00000000       0.00000000       7.52645917 </v>
   </varray>
   <i name="volume">     41.14572454 </i>
   <varray name="rec_basis" >
    <v>       0.39801397      -0.22979347       0.00000000 </v>
    <v>       0.39801397       0.22979347       0.00000000 </v>
    <v>       0.00000000       0.00000000       0.13286460 </v>
   </varray>
  </crystal>
  <varray name="positions" >
   <v>       0.00000000       0.00000000       0.00000000 </v>
   <v>       0.33333333       0.66666667       0.50000000 </v>
   <v>       0.33333333       0.66666667       0.00000000 </v>
   <v>       0.66666667       0.33333333       0.50000000 </v>
  </varray>
 </structure>
</modeling>
