 vasp.5.4.4.18Apr17-6-g9f103f2a35 (build May 10 2019 17:57:18) complex          
  
 executed on             LinuxIFC date 2024.07.15  20:33:57
 running on   20 total cores
 distrk:  each k-point on   20 cores,    1 groups
 distr:  one band on NCORES_PER_BAND=   1 cores,   20 groups


--------------------------------------------------------------------------------------------------------


 INCAR:
 POTCAR:    PAW_PBE B 06Sep2000                   
 POTCAR:    PAW_PBE N 08Apr2002                   

 ----------------------------------------------------------------------------- 
|                                                                             |
|           W    W    AA    RRRRR   N    N  II  N    N   GGGG   !!!           |
|           W    W   A  A   R    R  NN   N  II  NN   N  G    G  !!!           |
|           W    W  A    A  R    R  N N  N  II  N N  N  G       !!!           |
|           W WW W  AAAAAA  RRRRR   N  N N  II  N  N N  G  GGG   !            |
|           WW  WW  A    A  R   R   N   NN  II  N   NN  G    G                |
|           W    W  A    A  R    R  N    N  II  N    N   GGGG   !!!           |
|                                                                             |
|      For optimal performance we recommend to set                            |
|        NCORE= 4 - approx SQRT( number of cores)                             |
|      NCORE specifies how many cores store one orbital (NPAR=cpu/NCORE).     |
|      This setting can  greatly improve the performance of VASP for DFT.     |
|      The default,   NCORE=1            might be grossly inefficient         |
|      on modern multi-core architectures or massively parallel machines.     |
|      Do your own testing !!!!                                               |
|      Unfortunately you need to use the default for GW and RPA calculations. |
|      (for HF NCORE is supported but not extensively tested yet)             |
|                                                                             |
 ----------------------------------------------------------------------------- 

 POTCAR:    PAW_PBE B 06Sep2000                   
   SHA256 =  a32ced30f5ae56fd4d10b4325ff17eb3e4e38ee0f4288bc219fb012fddfa6e97 B/
   COPYR  = (c) Copyright 06Sep2000 Georg Kresse                                
   COPYR  = This file is part of the software VASP. Any use, copying, and all ot
   COPYR  = If you do not have a valid VASP license, you may not use, copy or di
   VRHFIN =B: s2p1                                                              
   LEXCH  = PE                                                                  
   EATOM  =    71.1703 eV,    5.2309 Ry                                         
                                                                                
   TITEL  = PAW_PBE B 06Sep2000                                                 
   LULTRA =        F    use ultrasoft PP ?                                      
   IUNSCR =        1    unscreen: 0-lin 1-nonlin 2-no                           
   RPACOR =    1.200    partial core radius                                     
   POMASS =   10.811; ZVAL   =    3.000    mass and valenz                      
   RCORE  =    1.700    outmost cutoff radius                                   
   RWIGS  =    1.710; RWIGS  =    0.905    wigner-seitz radius (au A)           
   ENMAX  =  318.614; ENMIN  =  238.960 eV                                      
   ICORE  =        2    local potential                                         
   LCOR   =        T    correct aug charges                                     
   LPAW   =        T    paw PP                                                  
   EAUG   =  535.514                                                            
   DEXC   =    0.000                                                            
   RMAX   =    1.732    core radius for proj-oper                               
   RAUG   =    1.300    factor for augmentation sphere                          
   RDEP   =    1.757    radius for radial grids                                 
   RDEPT  =    1.436    core radius for aug-charge                              
                                                                                
   Atomic configuration                                                         
    4 entries                                                                   
     n  l   j            E        occ.                                          
     1  0  0.50      -180.5896   2.0000                                         
     2  0  0.50        -9.4431   2.0000                                         
     2  1  0.50        -3.6068   1.0000                                         
     3  2  1.50        -4.0817   0.0000                                         
   Description                                                                  
     l       E           TYP  RCUT    TYP  RCUT                                 
     0     -9.4430752     23  1.500                                             
     0      0.8675899     23  1.500                                             
     1     -3.6067955     23  1.700                                             
     1      6.1086146     23  1.700                                             
     2     -4.0817478      7  1.700                                             
  local pseudopotential read in
  partial core-charges read in
  partial kinetic energy density read in
  atomic valenz-charges read in
  non local Contribution for L=           0  read in
    real space projection operators read in
  non local Contribution for L=           0  read in
    real space projection operators read in
  non local Contribution for L=           1  read in
    real space projection operators read in
  non local Contribution for L=           1  read in
    real space projection operators read in
    PAW grid and wavefunctions read in
 
   number of l-projection  operators is LMAX  =           4
   number of lm-projection operators is LMMAX =           8
 
 POTCAR:    PAW_PBE N 08Apr2002                   
   SHA256 =  e053789ff3a61a86a1b75d8a110fcc91f86041011e7b0817c7c99e4e8a6349d7 N/
   COPYR  = (c) Copyright 08Apr2002 Georg Kresse                                
   COPYR  = This file is part of the software VASP. Any use, copying, and all ot
   COPYR  = If you do not have a valid VASP license, you may not use, copy or di
   VRHFIN =N: s2p3                                                              
   LEXCH  = PE                                                                  
   EATOM  =   264.5486 eV,   19.4438 Ry                                         
                                                                                
   TITEL  = PAW_PBE N 08Apr2002                                                 
   LULTRA =        F    use ultrasoft PP ?                                      
   IUNSCR =        1    unscreen: 0-lin 1-nonlin 2-no                           
   RPACOR =    1.200    partial core radius                                     
   POMASS =   14.001; ZVAL   =    5.000    mass and valenz                      
   RCORE  =    1.500    outmost cutoff radius                                   
   RWIGS  =    1.400; RWIGS  =    0.741    wigner-seitz radius (au A)           
   ENMAX  =  400.000; ENMIN  =  300.000 eV                                      
   ICORE  =        2    local potential                                         
   LCOR   =        T    correct aug charges                                     
   LPAW   =        T    paw PP                                                  
   EAUG   =  627.112                                                            
   DEXC   =    0.000                                                            
   RMAX   =    1.529    core radius for proj-oper                               
   RAUG   =    1.300    factor for augmentation sphere                          
   RDEP   =    1.514    radius for radial grids                                 
   RDEPT  =    1.338    core radius for aug-charge                              
                                                                                
   Atomic configuration                                                         
    4 entries                                                                   
     n  l   j            E        occ.                                          
     1  0  0.50      -384.7179   2.0000                                         
     2  0  0.50       -18.5828   2.0000                                         
     2  1  0.50        -7.0898   3.0000                                         
     3  2  1.50        -6.8029   0.0000                                         
   Description                                                                  
     l       E           TYP  RCUT    TYP  RCUT                                 
     0    -18.5828119     23  1.200                                             
     0    -13.5018863     23  1.200                                             
     1     -7.0897853     23  1.500                                             
     1      9.5240782     23  1.500                                             
     2     -6.8029130      7  1.500                                             
  local pseudopotential read in
  partial core-charges read in
  partial kinetic energy density read in
  atomic valenz-charges read in
  non local Contribution for L=           0  read in
    real space projection operators read in
  non local Contribution for L=           0  read in
    real space projection operators read in
  non local Contribution for L=           1  read in
    real space projection operators read in
  non local Contribution for L=           1  read in
    real space projection operators read in
    PAW grid and wavefunctions read in
 
   number of l-projection  operators is LMAX  =           4
   number of lm-projection operators is LMMAX =           8
 
  PAW_PBE B 06Sep2000                   :
 energy of atom  1       EATOM=  -71.1703
 kinetic energy error for atom=    0.0012 (will be added to EATOM!!)
  PAW_PBE N 08Apr2002                   :
 energy of atom  2       EATOM= -264.5486
 kinetic energy error for atom=    0.0138 (will be added to EATOM!!)
 
 
 POSCAR: B2 N2                                   
  positions in direct lattice
  velocities in cartesian coordinates
 exchange correlation table for  LEXCH =        8
   RHO(1)=    0.500       N(1)  =     2000
   RHO(2)=  100.500       N(2)  =     4000
 


--------------------------------------------------------------------------------------------------------


 ion  position               nearest neighbor table
   1  0.000  0.000  0.000-   3 1.45   3 1.45   3 1.45
   2  0.333  0.667  0.500-   4 1.45   4 1.45   4 1.45
   3  0.333  0.667  0.000-   1 1.45   1 1.45   1 1.45
   4  0.667  0.333  0.500-   2 1.45   2 1.45   2 1.45
 
  LATTYP: Found a hexagonal cell.
 ALAT       =     2.5124746362
 C/A-ratio  =     2.9956358826
  
  Lattice vectors:
  
 A1 = (   1.2562373181,  -2.1758668613,   0.0000000000)
 A2 = (   1.2562373181,   2.1758668613,   0.0000000000)
 A3 = (   0.0000000000,   0.0000000000,   7.5264591742)


Analysis of symmetry for initial positions (statically):
=====================================================================
 Subroutine PRICEL returns:
 Original cell was already a primitive cell.
 

 Routine SETGRP: Setting up the symmetry group for a 
 hexagonal supercell.


 Subroutine GETGRP returns: Found 12 space group operations
 (whereof 12 operations were pure point group operations)
 out of a pool of 24 trial point group operations.


The static configuration has the point symmetry D_3h.


Analysis of symmetry for dynamics (positions and initial velocities):
=====================================================================
 Subroutine PRICEL returns:
 Original cell was already a primitive cell.
 

 Routine SETGRP: Setting up the symmetry group for a 
 hexagonal supercell.


 Subroutine GETGRP returns: Found 12 space group operations
 (whereof 12 operations were pure point group operations)
 out of a pool of 24 trial point group operations.


The dynamic configuration has the point symmetry D_3h.


 Subroutine INISYM returns: Found 12 space group operations
 (whereof 12 operations are pure point group operations),
 and found     1 'primitive' translations

 
 
 KPOINTS: A                                       

Automatic generation of k-mesh.
Space group operators:
 irot       det(A)        alpha          n_x          n_y          n_z        tau_x        tau_y        tau_z
    1     1.000000     0.000000     1.000000     0.000000     0.000000     0.000000     0.000000     0.000000
    2    -1.000000    60.000000     0.000000     0.000000    -1.000000     0.000000     0.000000     0.000000
    3     1.000000   120.000000     0.000000     0.000000    -1.000000     0.000000     0.000000     0.000000
    4    -1.000000   180.000000     0.000000     0.000000     1.000000     0.000000     0.000000     0.000000
    5     1.000000   120.000000     0.000000     0.000000     1.000000     0.000000     0.000000     0.000000
    6    -1.000000    60.000000     0.000000     0.000000     1.000000     0.000000     0.000000     0.000000
    7    -1.000000   180.000000     0.500000    -0.866025     0.000000     0.000000     0.000000     0.000000
    8     1.000000   180.000000     0.000000     1.000000     0.000000     0.000000     0.000000     0.000000
    9    -1.000000   180.000000    -0.500000    -0.866025     0.000000     0.000000     0.000000     0.000000
   10     1.000000   180.000000     0.866025     0.500000     0.000000     0.000000     0.000000     0.000000
   11    -1.000000   180.000000     1.000000     0.000000     0.000000     0.000000     0.000000     0.000000
   12     1.000000   180.000000     0.866025    -0.500000     0.000000     0.000000     0.000000     0.000000
 
 Subroutine IBZKPT returns following result:
 ===========================================
 
 Found     10 irreducible k-points:
 
 Following reciprocal coordinates:
            Coordinates               Weight
  0.000000  0.000000  0.000000      1.000000
  0.125000  0.000000  0.000000      6.000000
  0.250000  0.000000  0.000000      6.000000
  0.375000  0.000000  0.000000      6.000000
  0.500000  0.000000  0.000000      3.000000
  0.125000  0.125000  0.000000      6.000000
  0.250000  0.125000  0.000000     12.000000
  0.375000  0.125000  0.000000     12.000000
  0.250000  0.250000  0.000000      6.000000
  0.375000  0.250000  0.000000      6.000000
 
 Following cartesian coordinates:
            Coordinates               Weight
  0.000000  0.000000  0.000000      1.000000
  0.049752 -0.028724  0.000000      6.000000
  0.099503 -0.057448  0.000000      6.000000
  0.149255 -0.086173  0.000000      6.000000
  0.199007 -0.114897  0.000000      3.000000
  0.099503  0.000000  0.000000      6.000000
  0.149255 -0.028724  0.000000     12.000000
  0.199007 -0.057448  0.000000     12.000000
  0.199007  0.000000  0.000000      6.000000
  0.248759 -0.028724  0.000000      6.000000
 


--------------------------------------------------------------------------------------------------------




 Dimension of arrays:
   k-points           NKPTS =     10   k-points in BZ     NKDIM =     10   number of bands    NBANDS=     20
   number of dos      NEDOS =    301   number of ions     NIONS =      4
   non local maximal  LDIM  =      4   non local SUM 2l+1 LMDIM =      8
   total plane-waves  NPLWV =   8232
   max r-space proj   IRMAX =      1   max aug-charges    IRDMAX=  25156
   dimension x,y,z NGX =    14 NGY =   14 NGZ =   42
   dimension x,y,z NGXF=    28 NGYF=   28 NGZF=   84
   support grid    NGXF=    56 NGYF=   56 NGZF=  168
   ions per type =               2   2
   NGX,Y,Z   is equivalent  to a cutoff of   9.26,  9.26,  9.28 a.u.
   NGXF,Y,Z  is equivalent  to a cutoff of  18.53, 18.53, 18.55 a.u.

 SYSTEM =  BN                                      
 POSCAR =  B2 N2                                   

 Startparameter for this run:
   NWRITE =      2    write-flag & timer
   PREC   = normal    normal or accurate (medium, high low for compatibility)
   ISTART =      0    job   : 0-new  1-cont  2-samecut
   ICHARG =      2    charge: 1-file 2-atom 10-const
   ISPIN  =      1    spin polarized calculation?
   LNONCOLLINEAR =      F non collinear calculations
   LSORBIT =      F    spin-orbit coupling
   INIWAV =      1    electr: 0-lowe 1-rand  2-diag
   LASPH  =      F    aspherical Exc in radial PAW
   METAGGA=      F    non-selfconsistent MetaGGA calc.

 Electronic Relaxation 1
   ENCUT  =  500.0 eV  36.75 Ry    6.06 a.u.   4.58  4.58 13.72*2*pi/ulx,y,z
   ENINI  =  500.0     initial cutoff
   ENAUG  =  627.1 eV  augmentation charge cutoff
   NELM   =     60;   NELMIN=  2; NELMDL= -5     # of ELM steps 
   EDIFF  = 0.1E-03   stopping-criterion for ELM
   LREAL  =      F    real-space projection
   NLSPLINE    = F    spline interpolate recip. space projectors
   LCOMPAT=      F    compatible to vasp.4.4
   GGA_COMPAT  = T    GGA compatible to vasp.4.4-vasp.4.6
   LMAXPAW     = -100 max onsite density
   LMAXMIX     =    2 max onsite mixed and CHGCAR
   VOSKOWN=      0    Vosko Wilk Nusair interpolation
   ROPT   =    0.00000   0.00000
 Ionic relaxation
   EDIFFG = 0.1E-02   stopping-criterion for IOM
   NSW    =      0    number of steps for IOM
   NBLOCK =      1;   KBLOCK =      1    inner block; outer block 
   IBRION =     -1    ionic relax: 0-MD 1-quasi-New 2-CG
   NFREE  =      0    steps in history (QN), initial steepest desc. (CG)
   ISIF   =      2    stress and relaxation
   IWAVPR =     10    prediction:  0-non 1-charg 2-wave 3-comb
   ISYM   =      2    0-nonsym 1-usesym 2-fastsym
   LCORR  =      T    Harris-Foulkes like correction to forces

   POTIM  = 0.5000    time-step for ionic-motion
   TEIN   =    0.0    initial temperature
   TEBEG  =    0.0;   TEEND  =   0.0 temperature during run
   SMASS  =  -3.00    Nose mass-parameter (am)
   estimated Nose-frequenzy (Omega)   =  0.10E-29 period in steps =****** mass=  -0.144E-27a.u.
   SCALEE = 1.0000    scale energy and forces
   NPACO  =    256;   APACO  = 16.0  distance and # of slots for P.C.
   PSTRESS=    0.0 pullay stress

  Mass of Ions in am
   POMASS =  10.81 14.00
  Ionic Valenz
   ZVAL   =   3.00  5.00
  Atomic Wigner-Seitz radii
   RWIGS  =  -1.00 -1.00
  virtual crystal weights 
   VCA    =   1.00  1.00
   NELECT =      16.0000    total number of electrons
   NUPDOWN=      -1.0000    fix difference up-down

 DOS related values:
   EMIN   =  10.00;   EMAX   =-10.00  energy-range for DOS
   EFERMI =   0.00
   ISMEAR =     0;   SIGMA  =   0.05  broadening in eV -4-tet -1-fermi 0-gaus

 Electronic relaxation 2 (details)
   IALGO  =     38    algorithm
   LDIAG  =      T    sub-space diagonalisation (order eigenvalues)
   LSUBROT=      F    optimize rotation matrix (better conditioning)
   TURBO    =      0    0=normal 1=particle mesh
   IRESTART =      0    0=no restart 2=restart with 2 vectors
   NREBOOT  =      0    no. of reboots
   NMIN     =      0    reboot dimension
   EREF     =   0.00    reference energy to select bands
   IMIX   =      4    mixing-type and parameters
     AMIX     =   0.40;   BMIX     =  1.00
     AMIX_MAG =   1.60;   BMIX_MAG =  1.00
     AMIN     =   0.10
     WC   =   100.;   INIMIX=   1;  MIXPRE=   1;  MAXMIX= -45

 Intra band minimization:
   WEIMIN = 0.0000     energy-eigenvalue tresh-hold
   EBREAK =  0.13E-05  absolut break condition
   DEPER  =   0.30     relativ break condition  

   TIME   =   0.40     timestep for ELM

  volume/ion in A,a.u.               =      10.29        69.42
  Fermi-wavevector in a.u.,A,eV,Ry     =   1.194923  2.258077 19.426956  1.427841
  Thomas-Fermi vector in A             =   2.330901
 
 Write flags
   LWAVE        =      T    write WAVECAR
   LDOWNSAMPLE  =      F    k-point downsampling of WAVECAR
   LCHARG       =      T    write CHGCAR
   LVTOT        =      F    write LOCPOT, total local potential
   LVHAR        =      F    write LOCPOT, Hartree potential only
   LELF         =      F    write electronic localiz. function (ELF)
   LORBIT       =     11    0 simple, 1 ext, 2 COOP (PROOUT), +10 PAW based schemes


 Dipole corrections
   LMONO  =      F    monopole corrections only (constant potential shift)
   LDIPOL =      F    correct potential (dipole corrections)
   IDIPOL =      0    1-x, 2-y, 3-z, 4-all directions 
   EPSILON=  1.0000000 bulk dielectric constant

 Exchange correlation treatment:
   GGA     =    --    GGA type
   LEXCH   =     8    internal setting for exchange type
   VOSKOWN=      0    Vosko Wilk Nusair interpolation
   LHFCALC =     F    Hartree Fock is set to
   LHFONE  =     F    Hartree Fock one center treatment
   AEXX    =    0.0000 exact exchange contribution

 Linear response parameters
   LEPSILON=     F    determine dielectric tensor
   LRPA    =     F    only Hartree local field effects (RPA)
   LNABLA  =     F    use nabla operator in PAW spheres
   LVEL    =     F    velocity operator in full k-point grid
   LINTERFAST=   F  fast interpolation
   KINTER  =     0    interpolate to denser k-point grid
   CSHIFT  =0.1000    complex shift for real part using Kramers Kronig
   OMEGAMAX=  -1.0    maximum frequency
   DEG_THRESHOLD= 0.2000000E-02 threshold for treating states as degnerate
   RTIME   =   -0.100 relaxation time in fs
  (WPLASMAI=    0.000 imaginary part of plasma frequency in eV, 0.658/RTIME)
   DFIELD  = 0.0000000 0.0000000 0.0000000 field for delta impulse in time
 
 Orbital magnetization related:
   ORBITALMAG=     F  switch on orbital magnetization
   LCHIMAG   =     F  perturbation theory with respect to B field
   DQ        =  0.001000  dq finite difference perturbation B field
   LLRAUG    =     F  two centre corrections for induced B field



--------------------------------------------------------------------------------------------------------


 Static calculation
 charge density and potential will be updated during run
 non-spin polarized calculation
 Variant of blocked Davidson
 Davidson routine will perform the subspace rotation
 perform sub-space diagonalisation
    after iterative eigenvector-optimisation
 modified Broyden-mixing scheme, WC =      100.0
 initial mixing is a Kerker type mixing with AMIX =  0.4000 and BMIX =      1.0000
 Hartree-type preconditioning will be used
 using additional bands           12
 reciprocal scheme for non local part
 use partial core corrections
 calculate Harris-corrections to forces 
   (improved forces if not selfconsistent)
 use gradient corrections 
 use of overlap-Matrix (Vanderbilt PP)
 Gauss-broadening in eV      SIGMA  =   0.05


--------------------------------------------------------------------------------------------------------


  energy-cutoff  :      500.00
  volume of cell :       41.15
      direct lattice vectors                 reciprocal lattice vectors
     1.256237318 -2.175866861  0.000000000     0.398013968 -0.229793472  0.000000000
     1.256237318  2.175866861  0.000000000     0.398013968  0.229793472  0.000000000
     0.000000000  0.000000000  7.526459174     0.000000000  0.000000000  0.132864602

  length of vectors
     2.512474636  2.512474636  7.526459174     0.459586943  0.459586943  0.132864602


 
 k-points in units of 2pi/SCALE and weight: A                                       
   0.00000000  0.00000000  0.00000000       0.016
   0.04975175 -0.02872418  0.00000000       0.094
   0.09950349 -0.05744837  0.00000000       0.094
   0.14925524 -0.08617255  0.00000000       0.094
   0.19900698 -0.11489674  0.00000000       0.047
   0.09950349  0.00000000  0.00000000       0.094
   0.14925524 -0.02872418  0.00000000       0.188
   0.19900698 -0.05744837  0.00000000       0.188
   0.19900698  0.00000000  0.00000000       0.094
   0.24875873 -0.02872418  0.00000000       0.094
 
 k-points in reciprocal lattice and weights: A                                       
   0.00000000  0.00000000  0.00000000       0.016
   0.12500000  0.00000000  0.00000000       0.094
   0.25000000  0.00000000  0.00000000       0.094
   0.37500000  0.00000000  0.00000000       0.094
   0.50000000  0.00000000  0.00000000       0.047
   0.12500000  0.12500000  0.00000000       0.094
   0.25000000  0.12500000  0.00000000       0.188
   0.37500000  0.12500000  0.00000000       0.188
   0.25000000  0.25000000  0.00000000       0.094
   0.37500000  0.25000000  0.00000000       0.094
 
 position of ions in fractional coordinates (direct lattice) 
   0.00000000  0.00000000  0.00000000
   0.33333333  0.66666667  0.50000000
   0.33333333  0.66666667  0.00000000
   0.66666667  0.33333333  0.50000000
 
 position of ions in cartesian coordinates  (Angst):
   0.00000000  0.00000000  0.00000000
   1.25623732  0.72528895  3.76322959
   1.25623732  0.72528895  0.00000000
   1.25623732 -0.72528895  3.76322959
 


--------------------------------------------------------------------------------------------------------


 k-point  1 :   0.0000 0.0000 0.0000  plane waves:    1041
 k-point  2 :   0.1250 0.0000 0.0000  plane waves:    1056
 k-point  3 :   0.2500 0.0000 0.0000  plane waves:    1062
 k-point  4 :   0.3750 0.0000 0.0000  plane waves:    1040
 k-point  5 :   0.5000 0.0000 0.0000  plane waves:    1032
 k-point  6 :   0.1250 0.1250 0.0000  plane waves:    1053
 k-point  7 :   0.2500 0.1250 0.0000  plane waves:    1050
 k-point  8 :   0.3750 0.1250 0.0000  plane waves:    1041
 k-point  9 :   0.2500 0.2500 0.0000  plane waves:    1025
 k-point 10 :   0.3750 0.2500 0.0000  plane waves:    1024

 maximum and minimum number of plane-waves per node :      1062     1024

 maximum number of plane-waves:      1062
 maximum index in each direction: 
   IXMAX=    4   IYMAX=    4   IZMAX=   13
   IXMIN=   -5   IYMIN=   -4   IZMIN=  -13


 serial   3D FFT for wavefunctions
 parallel 3D FFT for charge:
    minimum data exchange during FFTs selected (reduces bandwidth)


 total amount of memory used by VASP MPI-rank0    32803. kBytes
=======================================================================

   base      :      30000. kBytes
   nonl-proj :       1451. kBytes
   fftplans  :        561. kBytes
   grid      :        600. kBytes
   one-center:         12. kBytes
   wavefun   :        179. kBytes
 
     INWAV:  cpu time    0.0000: real time    0.0000
 Broyden mixing: mesh for mixing (old mesh)
   NGX =  9   NGY =  9   NGZ = 27
  (NGX  = 28   NGY  = 28   NGZ  = 84)
  gives a total of   2187 points

 initial charge density was supplied:
 charge density of overlapping atoms calculated
 number of electron      16.0000000 magnetization 
 keeping initial charge density in first step


--------------------------------------------------------------------------------------------------------


 Maximum index for augmentation-charges         1246 (set IRDMAX)


--------------------------------------------------------------------------------------------------------


 First call to EWALD:  gamma=   0.513
 Maximum number of real-space cells 4x 4x 2
 Maximum number of reciprocal cells 2x 2x 5

    FEWALD:  cpu time    0.0014: real time    0.0015


--------------------------------------- Iteration      1(   1)  ---------------------------------------


    POTLOK:  cpu time    0.0031: real time    0.0045
    SETDIJ:  cpu time    0.0022: real time    0.0023
     EDDAV:  cpu time    0.0341: real time    0.0349
       DOS:  cpu time    0.0004: real time    0.0005
    --------------------------------------------
      LOOP:  cpu time    0.0399: real time    0.0422

 eigenvalue-minimisations  :   400
 total energy-change (2. order) : 0.1516202E+02  (-0.9222482E+03)
 number of electron      16.0000000 magnetization 
 augmentation part       16.0000000 magnetization 

 Free energy of the ion-electron system (eV)
  ---------------------------------------------------
  alpha Z        PSCENC =        34.59384069
  Ewald energy   TEWEN  =      -421.88703305
  -Hartree energ DENC   =      -233.95495413
  -exchange      EXHF   =         0.00000000
  -V(xc)+E(xc)   XCENC  =        53.96755788
  PAW double counting   =       496.86519423     -497.53652252
  entropy T*S    EENTRO =        -0.00000000
  eigenvalues    EBANDS =       -88.29399476
  atomic energy  EATOM  =       671.40793249
  Solvation  Ediel_sol  =         0.00000000
  ---------------------------------------------------
  free energy    TOTEN  =        15.16202084 eV

  energy without entropy =       15.16202084  energy(sigma->0) =       15.16202084


--------------------------------------------------------------------------------------------------------




--------------------------------------- Iteration      1(   2)  ---------------------------------------


     EDDAV:  cpu time    0.0699: real time    0.0709
       DOS:  cpu time    0.0002: real time    0.0002
    --------------------------------------------
      LOOP:  cpu time    0.0701: real time    0.0711

 eigenvalue-minimisations  :   640
 total energy-change (2. order) :-0.5359148E+02  (-0.5359148E+02)
 number of electron      16.0000000 magnetization 
 augmentation part       16.0000000 magnetization 

 Free energy of the ion-electron system (eV)
  ---------------------------------------------------
  alpha Z        PSCENC =        34.59384069
  Ewald energy   TEWEN  =      -421.88703305
  -Hartree energ DENC   =      -233.95495413
  -exchange      EXHF   =         0.00000000
  -V(xc)+E(xc)   XCENC  =        53.96755788
  PAW double counting   =       496.86519423     -497.53652252
  entropy T*S    EENTRO =        -0.00000000
  eigenvalues    EBANDS =      -141.88547326
  atomic energy  EATOM  =       671.40793249
  Solvation  Ediel_sol  =         0.00000000
  ---------------------------------------------------
  free energy    TOTEN  =       -38.42945766 eV

  energy without entropy =      -38.42945766  energy(sigma->0) =      -38.42945766


--------------------------------------------------------------------------------------------------------




--------------------------------------- Iteration      1(   3)  ---------------------------------------


     EDDAV:  cpu time    0.0312: real time    0.0318
       DOS:  cpu time    0.0002: real time    0.0002
    --------------------------------------------
      LOOP:  cpu time    0.0314: real time    0.0319

 eigenvalue-minimisations  :   400
 total energy-change (2. order) :-0.3960681E+00  (-0.3960681E+00)
 number of electron      16.0000000 magnetization 
 augmentation part       16.0000000 magnetization 

 Free energy of the ion-electron system (eV)
  ---------------------------------------------------
  alpha Z        PSCENC =        34.59384069
  Ewald energy   TEWEN  =      -421.88703305
  -Hartree energ DENC   =      -233.95495413
  -exchange      EXHF   =         0.00000000
  -V(xc)+E(xc)   XCENC  =        53.96755788
  PAW double counting   =       496.86519423     -497.53652252
  entropy T*S    EENTRO =        -0.00000000
  eigenvalues    EBANDS =      -142.28154137
  atomic energy  EATOM  =       671.40793249
  Solvation  Ediel_sol  =         0.00000000
  ---------------------------------------------------
  free energy    TOTEN  =       -38.82552577 eV

  energy without entropy =      -38.82552577  energy(sigma->0) =      -38.82552577


--------------------------------------------------------------------------------------------------------




--------------------------------------- Iteration      1(   4)  ---------------------------------------


     EDDAV:  cpu time    0.0910: real time    0.0922
       DOS:  cpu time    0.0002: real time    0.0002
    --------------------------------------------
      LOOP:  cpu time    0.0912: real time    0.0923

 eigenvalue-minimisations  :   740
 total energy-change (2. order) :-0.9959705E-03  (-0.9959705E-03)
 number of electron      16.0000000 magnetization 
 augmentation part       16.0000000 magnetization 

 Free energy of the ion-electron system (eV)
  ---------------------------------------------------
  alpha Z        PSCENC =        34.59384069
  Ewald energy   TEWEN  =      -421.88703305
  -Hartree energ DENC   =      -233.95495413
  -exchange      EXHF   =         0.00000000
  -V(xc)+E(xc)   XCENC  =        53.96755788
  PAW double counting   =       496.86519423     -497.53652252
  entropy T*S    EENTRO =        -0.00000000
  eigenvalues    EBANDS =      -142.28253734
  atomic energy  EATOM  =       671.40793249
  Solvation  Ediel_sol  =         0.00000000
  ---------------------------------------------------
  free energy    TOTEN  =       -38.82652174 eV

  energy without entropy =      -38.82652174  energy(sigma->0) =      -38.82652174


--------------------------------------------------------------------------------------------------------




--------------------------------------- Iteration      1(   5)  ---------------------------------------


     EDDAV:  cpu time    0.0309: real time    0.0328
       DOS:  cpu time    0.0001: real time    0.0001
    CHARGE:  cpu time    0.0025: real time    0.0028
    MIXING:  cpu time    0.0005: real time    0.0006
    --------------------------------------------
      LOOP:  cpu time    0.0340: real time    0.0363

 eigenvalue-minimisations  :   400
 total energy-change (2. order) :-0.5146592E-07  (-0.5146636E-07)
 number of electron      15.9999999 magnetization 
 augmentation part        0.6242228 magnetization 

 Broyden mixing:
  rms(total) = 0.11233E+01    rms(broyden)= 0.11230E+01
  rms(prec ) = 0.16712E+01
  weight for this iteration     100.00

 Free energy of the ion-electron system (eV)
  ---------------------------------------------------
  alpha Z        PSCENC =        34.59384069
  Ewald energy   TEWEN  =      -421.88703305
  -Hartree energ DENC   =      -233.95495413
  -exchange      EXHF   =         0.00000000
  -V(xc)+E(xc)   XCENC  =        53.96755788
  PAW double counting   =       496.86519423     -497.53652252
  entropy T*S    EENTRO =        -0.00000000
  eigenvalues    EBANDS =      -142.28253739
  atomic energy  EATOM  =       671.40793249
  Solvation  Ediel_sol  =         0.00000000
  ---------------------------------------------------
  free energy    TOTEN  =       -38.82652179 eV

  energy without entropy =      -38.82652179  energy(sigma->0) =      -38.82652179


--------------------------------------------------------------------------------------------------------




--------------------------------------- Iteration      1(   6)  ---------------------------------------


    POTLOK:  cpu time    0.0020: real time    0.0022
    SETDIJ:  cpu time    0.0023: real time    0.0024
     EDDAV:  cpu time    0.0653: real time    0.0661
       DOS:  cpu time    0.0002: real time    0.0002
    CHARGE:  cpu time    0.0027: real time    0.0027
    MIXING:  cpu time    0.0003: real time    0.0004
    --------------------------------------------
      LOOP:  cpu time    0.0728: real time    0.0739

 eigenvalue-minimisations  :   500
 total energy-change (2. order) : 0.3241279E+01  (-0.1308414E+01)
 number of electron      15.9999999 magnetization 
 augmentation part        0.4907956 magnetization 

 Broyden mixing:
  rms(total) = 0.52068E+00    rms(broyden)= 0.52057E+00
  rms(prec ) = 0.66433E+00
  weight for this iteration     100.00

 eigenvalues of (default mixing * dielectric matrix)
  average eigenvalue GAMMA=   1.0948
  1.0948

 Free energy of the ion-electron system (eV)
  ---------------------------------------------------
  alpha Z        PSCENC =        34.59384069
  Ewald energy   TEWEN  =      -421.88703305
  -Hartree energ DENC   =      -263.64331190
  -exchange      EXHF   =         0.00000000
  -V(xc)+E(xc)   XCENC  =        55.76260721
  PAW double counting   =       901.13011505     -902.26021160
  entropy T*S    EENTRO =        -0.00000000
  eigenvalues    EBANDS =      -110.68918167
  atomic energy  EATOM  =       671.40793249
  Solvation  Ediel_sol  =         0.00000000
  ---------------------------------------------------
  free energy    TOTEN  =       -35.58524278 eV

  energy without entropy =      -35.58524278  energy(sigma->0) =      -35.58524278


--------------------------------------------------------------------------------------------------------




--------------------------------------- Iteration      1(   7)  ---------------------------------------


    POTLOK:  cpu time    0.0020: real time    0.0022
    SETDIJ:  cpu time    0.0023: real time    0.0023
     EDDAV:  cpu time    0.1438: real time    0.1455
       DOS:  cpu time    0.0002: real time    0.0002
    CHARGE:  cpu time    0.0028: real time    0.0028
    MIXING:  cpu time    0.0002: real time    0.0002
    --------------------------------------------
      LOOP:  cpu time    0.1513: real time    0.1532

 eigenvalue-minimisations  :   620
 total energy-change (2. order) : 0.3333194E+00  (-0.4478318E-01)
 number of electron      15.9999999 magnetization 
 augmentation part        0.4781514 magnetization 

 Broyden mixing:
  rms(total) = 0.31256E+00    rms(broyden)= 0.31253E+00
  rms(prec ) = 0.37737E+00
  weight for this iteration     100.00

 eigenvalues of (default mixing * dielectric matrix)
  average eigenvalue GAMMA=   1.8141
  1.0613  2.5670

 Free energy of the ion-electron system (eV)
  ---------------------------------------------------
  alpha Z        PSCENC =        34.59384069
  Ewald energy   TEWEN  =      -421.88703305
  -Hartree energ DENC   =      -272.57825797
  -exchange      EXHF   =         0.00000000
  -V(xc)+E(xc)   XCENC  =        56.20909544
  PAW double counting   =      1270.10854289    -1271.42272226
  entropy T*S    EENTRO =        -0.00000000
  eigenvalues    EBANDS =      -101.68332165
  atomic energy  EATOM  =       671.40793249
  Solvation  Ediel_sol  =         0.00000000
  ---------------------------------------------------
  free energy    TOTEN  =       -35.25192341 eV

  energy without entropy =      -35.25192341  energy(sigma->0) =      -35.25192341


--------------------------------------------------------------------------------------------------------




--------------------------------------- Iteration      1(   8)  ---------------------------------------


    POTLOK:  cpu time    0.0020: real time    0.0024
    SETDIJ:  cpu time    0.0023: real time    0.0023
     EDDAV:  cpu time    0.0977: real time    0.0989
       DOS:  cpu time    0.0002: real time    0.0002
    CHARGE:  cpu time    0.0027: real time    0.0028
    MIXING:  cpu time    0.0002: real time    0.0002
    --------------------------------------------
      LOOP:  cpu time    0.1052: real time    0.1067

 eigenvalue-minimisations  :   520
 total energy-change (2. order) : 0.9341563E-01  (-0.3539463E-01)
 number of electron      15.9999999 magnetization 
 augmentation part        0.4710590 magnetization 

 Broyden mixing:
  rms(total) = 0.34803E-01    rms(broyden)= 0.34747E-01
  rms(prec ) = 0.45912E-01
  weight for this iteration     100.00

 eigenvalues of (default mixing * dielectric matrix)
  average eigenvalue GAMMA=   1.5197
  2.3761  1.0329  1.1501

 Free energy of the ion-electron system (eV)
  ---------------------------------------------------
  alpha Z        PSCENC =        34.59384069
  Ewald energy   TEWEN  =      -421.88703305
  -Hartree energ DENC   =      -281.79420371
  -exchange      EXHF   =         0.00000000
  -V(xc)+E(xc)   XCENC  =        56.68276210
  PAW double counting   =      1839.52334356    -1841.01683690
  entropy T*S    EENTRO =        -0.00000000
  eigenvalues    EBANDS =       -92.66831297
  atomic energy  EATOM  =       671.40793249
  Solvation  Ediel_sol  =         0.00000000
  ---------------------------------------------------
  free energy    TOTEN  =       -35.15850778 eV

  energy without entropy =      -35.15850778  energy(sigma->0) =      -35.15850778


--------------------------------------------------------------------------------------------------------




--------------------------------------- Iteration      1(   9)  ---------------------------------------


    POTLOK:  cpu time    0.0021: real time    0.0024
    SETDIJ:  cpu time    0.0023: real time    0.0023
     EDDAV:  cpu time    0.0721: real time    0.0730
       DOS:  cpu time    0.0002: real time    0.0002
    CHARGE:  cpu time    0.0027: real time    0.0028
    MIXING:  cpu time    0.0002: real time    0.0002
    --------------------------------------------
      LOOP:  cpu time    0.0794: real time    0.0807

 eigenvalue-minimisations  :   440
 total energy-change (2. order) :-0.1069175E-02  (-0.3937838E-03)
 number of electron      15.9999999 magnetization 
 augmentation part        0.4710229 magnetization 

 Broyden mixing:
  rms(total) = 0.18795E-01    rms(broyden)= 0.18790E-01
  rms(prec ) = 0.24249E-01
  weight for this iteration     100.00

 eigenvalues of (default mixing * dielectric matrix)
  average eigenvalue GAMMA=   1.7013
  1.0313  1.0313  2.3713  2.3713

 Free energy of the ion-electron system (eV)
  ---------------------------------------------------
  alpha Z        PSCENC =        34.59384069
  Ewald energy   TEWEN  =      -421.88703305
  -Hartree energ DENC   =      -281.57423792
  -exchange      EXHF   =         0.00000000
  -V(xc)+E(xc)   XCENC  =        56.67598568
  PAW double counting   =      1836.59791607    -1838.07248886
  entropy T*S    EENTRO =        -0.00000000
  eigenvalues    EBANDS =       -92.90149205
  atomic energy  EATOM  =       671.40793249
  Solvation  Ediel_sol  =         0.00000000
  ---------------------------------------------------
  free energy    TOTEN  =       -35.15957695 eV

  energy without entropy =      -35.15957695  energy(sigma->0) =      -35.15957695


--------------------------------------------------------------------------------------------------------




--------------------------------------- Iteration      1(  10)  ---------------------------------------


    POTLOK:  cpu time    0.0020: real time    0.0024
    SETDIJ:  cpu time    0.0023: real time    0.0023
     EDDAV:  cpu time    0.1259: real time    0.1274
       DOS:  cpu time    0.0002: real time    0.0002
    CHARGE:  cpu time    0.0027: real time    0.0028
    MIXING:  cpu time    0.0002: real time    0.0002
    --------------------------------------------
      LOOP:  cpu time    0.1333: real time    0.1352

 eigenvalue-minimisations  :   580
 total energy-change (2. order) :-0.1376085E-02  (-0.1434077E-03)
 number of electron      15.9999999 magnetization 
 augmentation part        0.4713298 magnetization 

 Broyden mixing:
  rms(total) = 0.41494E-02    rms(broyden)= 0.41478E-02
  rms(prec ) = 0.50109E-02
  weight for this iteration     100.00

 eigenvalues of (default mixing * dielectric matrix)
  average eigenvalue GAMMA=   1.7641
  2.6781  1.0101  1.0101  2.0609  2.0609

 Free energy of the ion-electron system (eV)
  ---------------------------------------------------
  alpha Z        PSCENC =        34.59384069
  Ewald energy   TEWEN  =      -421.88703305
  -Hartree energ DENC   =      -281.74655319
  -exchange      EXHF   =         0.00000000
  -V(xc)+E(xc)   XCENC  =        56.68956346
  PAW double counting   =      1859.30624492    -1860.76893128
  entropy T*S    EENTRO =        -0.00000000
  eigenvalues    EBANDS =       -92.75601709
  atomic energy  EATOM  =       671.40793249
  Solvation  Ediel_sol  =         0.00000000
  ---------------------------------------------------
  free energy    TOTEN  =       -35.16095304 eV

  energy without entropy =      -35.16095304  energy(sigma->0) =      -35.16095304


--------------------------------------------------------------------------------------------------------




--------------------------------------- Iteration      1(  11)  ---------------------------------------


    POTLOK:  cpu time    0.0020: real time    0.0024
    SETDIJ:  cpu time    0.0023: real time    0.0024
     EDDAV:  cpu time    0.0787: real time    0.0797
       DOS:  cpu time    0.0002: real time    0.0001
    --------------------------------------------
      LOOP:  cpu time    0.0833: real time    0.0846

 eigenvalue-minimisations  :   460
 total energy-change (2. order) :-0.8978591E-04  (-0.1008239E-04)
 number of electron      15.9999999 magnetization 
 augmentation part        0.4713298 magnetization 

 Free energy of the ion-electron system (eV)
  ---------------------------------------------------
  alpha Z        PSCENC =        34.59384069
  Ewald energy   TEWEN  =      -421.88703305
  -Hartree energ DENC   =      -281.86278633
  -exchange      EXHF   =         0.00000000
  -V(xc)+E(xc)   XCENC  =        56.69568998
  PAW double counting   =      1854.99897403    -1856.46195341
  entropy T*S    EENTRO =        -0.00000000
  eigenvalues    EBANDS =       -92.64570724
  atomic energy  EATOM  =       671.40793249
  Solvation  Ediel_sol  =         0.00000000
  ---------------------------------------------------
  free energy    TOTEN  =       -35.16104282 eV

  energy without entropy =      -35.16104282  energy(sigma->0) =      -35.16104282


--------------------------------------------------------------------------------------------------------




 average (electrostatic) potential at core
  the test charge radii are     0.7672  0.7089
  (the norm of the test charge is              1.0000)
       1 -30.0132       2 -29.9671       3 -65.9144       4 -65.8568
 
 
 
 E-fermi :   1.4313     XC(G=0):  -9.2205     alpha+bet : -9.6182


 k-point     1 :       0.0000    0.0000    0.0000
  band No.  band energies     occupation 
      1     -16.3497      2.00000
      2     -16.2331      2.00000
      3      -4.4174      2.00000
      4      -3.3094      2.00000
      5      -0.0500      2.00000
      6      -0.0499      2.00000
      7       0.0014      2.00000
      8       0.0014      2.00000
      9       5.9693      0.00000
     10      10.1345      0.00000
     11      12.4800      0.00000
     12      12.8064      0.00000
     13      12.8064      0.00000
     14      12.8595      0.00000
     15      12.8595      0.00000
     16      14.0202      0.00000
     17      15.3167      0.00000
     18      16.1927      0.00000
     19      19.5941      0.00000
     20      25.6404      0.00000

 k-point     2 :       0.1250    0.0000    0.0000
  band No.  band energies     occupation 
      1     -16.0508      2.00000
      2     -15.9382      2.00000
      3      -4.0066      2.00000
      4      -2.9266      2.00000
      5      -1.2361      2.00000
      6      -1.1838      2.00000
      7      -0.5888      2.00000
      8      -0.5369      2.00000
      9       6.4960      0.00000
     10      10.1756      0.00000
     11      12.2989      0.00000
     12      12.6814      0.00000
     13      13.0654      0.00000
     14      13.6163      0.00000
     15      14.0834      0.00000
     16      14.1374      0.00000
     17      15.4380      0.00000
     18      16.2469      0.00000
     19      20.2186      0.00000
     20      24.3155      0.00000

 k-point     3 :       0.2500    0.0000    0.0000
  band No.  band energies     occupation 
      1     -15.1968      2.00000
      2     -15.0958      2.00000
      3      -3.7937      2.00000
      4      -3.7364      2.00000
      5      -2.8154      2.00000
      6      -1.8324      2.00000
      7      -1.6518      2.00000
      8      -1.5992      2.00000
      9       7.8510      0.00000
     10       9.5567      0.00000
     11      10.6304      0.00000
     12      11.7561      0.00000
     13      12.3887      0.00000
     14      14.4624      0.00000
     15      15.5480      0.00000
     16      17.2319      0.00000
     17      17.2934      0.00000
     18      18.1725      0.00000
     19      21.1144      0.00000
     20      21.2231      0.00000

 k-point     4 :       0.3750    0.0000    0.0000
  band No.  band energies     occupation 
      1     -13.9976      2.00000
      2     -13.9176      2.00000
      3      -6.3423      2.00000
      4      -6.2768      2.00000
      5      -2.5073      2.00000
      6      -2.4542      2.00000
      7      -1.0497      2.00000
      8      -0.3013      2.00000
      9       7.3314      0.00000
     10       7.8974      0.00000
     11       9.7136      0.00000
     12      11.3163      0.00000
     13      12.4166      0.00000
     14      15.0388      0.00000
     15      16.5156      0.00000
     16      18.7869      0.00000
     17      19.0362      0.00000
     18      20.9125      0.00000
     19      21.0143      0.00000
     20      21.0432      0.00000

 k-point     5 :       0.5000    0.0000    0.0000
  band No.  band energies     occupation 
      1     -13.2604      2.00000
      2     -13.2035      2.00000
      3      -7.5655      2.00000
      4      -7.4959      2.00000
      5      -2.8207      2.00000
      6      -2.7674      2.00000
      7       0.2499      2.00000
      8       0.5463      2.00000
      9       5.7975      0.00000
     10       6.4586      0.00000
     11      10.8407      0.00000
     12      11.0125      0.00000
     13      13.6952      0.00000
     14      14.3152      0.00000
     15      15.9924      0.00000
     16      17.4953      0.00000
     17      19.7202      0.00000
     18      21.5230      0.00000
     19      22.4303      0.00000
     20      22.8445      0.00000

 k-point     6 :       0.1250    0.1250    0.0000
  band No.  band energies     occupation 
      1     -15.4725      2.00000
      2     -15.3675      2.00000
      3      -3.2039      2.00000
      4      -2.8561      2.00000
      5      -2.8048      2.00000
      6      -2.1857      2.00000
      7      -1.6408      2.00000
      8      -1.5899      2.00000
      9       7.4569      0.00000
     10       9.9136      0.00000
     11      11.4291      0.00000
     12      12.9427      0.00000
     13      13.1144      0.00000
     14      13.6317      0.00000
     15      14.5986      0.00000
     16      15.1288      0.00000
     17      16.6349      0.00000
     18      18.2492      0.00000
     19      21.1155      0.00000
     20      21.5977      0.00000

 k-point     7 :       0.2500    0.1250    0.0000
  band No.  band energies     occupation 
      1     -14.4223      2.00000
      2     -14.3331      2.00000
      3      -5.1494      2.00000
      4      -5.0926      2.00000
      5      -2.8817      2.00000
      6      -2.8287      2.00000
      7      -1.7013      2.00000
      8      -0.8381      2.00000
      9       8.4382      0.00000
     10       8.9418      0.00000
     11       9.2081      0.00000
     12      12.7561      0.00000
     13      13.3875      0.00000
     14      14.5235      0.00000
     15      15.5694      0.00000
     16      17.0961      0.00000
     17      18.4862      0.00000
     18      19.4587      0.00000
     19      20.6461      0.00000
     20      21.4039      0.00000

 k-point     8 :       0.3750    0.1250    0.0000
  band No.  band energies     occupation 
      1     -13.3252      2.00000
      2     -13.2613      2.00000
      3      -7.0673      2.00000
      4      -7.0011      2.00000
      5      -3.5591      2.00000
      6      -3.5040      2.00000
      7       0.0517      2.00000
      8       0.5399      2.00000
      9       6.2889      0.00000
     10       6.8151      0.00000
     11      11.3220      0.00000
     12      12.3706      0.00000
     13      13.6238      0.00000
     14      15.1776      0.00000
     15      15.6098      0.00000
     16      16.6581      0.00000
     17      19.0423      0.00000
     18      20.5250      0.00000
     19      20.6237      0.00000
     20      21.7665      0.00000

 k-point     9 :       0.2500    0.2500    0.0000
  band No.  band energies     occupation 
      1     -13.3859      2.00000
      2     -13.3164      2.00000
      3      -6.2741      2.00000
      4      -6.2228      2.00000
      5      -4.5610      2.00000
      6      -4.5077      2.00000
      7      -0.1006      2.00000
      8       0.5009      2.00000
      9       6.9291      0.00000
     10       7.1111      0.00000
     11      11.3998      0.00000
     12      14.4144      0.00000
     13      14.6640      0.00000
     14      15.2792      0.00000
     15      15.6246      0.00000
     16      15.8294      0.00000
     17      17.0833      0.00000
     18      19.9577      0.00000
     19      20.2165      0.00000
     20      20.6001      0.00000

 k-point    10 :       0.3750    0.2500    0.0000
  band No.  band energies     occupation 
      1     -12.8008      2.00000
      2     -12.7476      2.00000
      3      -6.8657      2.00000
      4      -6.8046      2.00000
      5      -5.2485      2.00000
      6      -5.1904      2.00000
      7       1.0123      2.00000
      8       1.1998      2.00000
      9       5.9286      0.00000
     10       6.1871      0.00000
     11      13.6333      0.00000
     12      13.9944      0.00000
     13      14.1140      0.00000
     14      14.5258      0.00000
     15      15.3282      0.00000
     16      16.6084      0.00000
     17      18.8722      0.00000
     18      19.8059      0.00000
     19      20.2309      0.00000
     20      20.3230      0.00000


--------------------------------------------------------------------------------------------------------


 soft charge-density along one line, spin component           1
         0         1         2         3         4         5         6         7         8         9
 total charge-density along one line
 
 pseudopotential strength for first ion, spin component:           1
  6.447   9.817  -0.000  -0.000  -0.000  -0.000  -0.000  -0.000
  9.817  14.943  -0.000  -0.000  -0.000  -0.000  -0.000  -0.000
 -0.000  -0.000  -2.178  -0.000  -0.000  -3.705  -0.000  -0.000
 -0.000  -0.000  -0.000  -2.176  -0.000  -0.000  -3.698  -0.000
 -0.000  -0.000  -0.000  -0.000  -2.178  -0.000  -0.000  -3.705
 -0.000  -0.000  -3.705  -0.000  -0.000  -6.104  -0.000  -0.000
 -0.000  -0.000  -0.000  -3.698  -0.000  -0.000  -6.085  -0.000
 -0.000  -0.000  -0.000  -0.000  -3.705  -0.000  -0.000  -6.104
 total augmentation occupancy for first ion, spin component:           1
  4.192  -1.221   0.000   0.000   0.000   0.000   0.000   0.000
 -1.221   0.384  -0.000   0.000   0.000   0.000   0.000   0.000
  0.000  -0.000   4.890  -0.000   0.000  -1.470  -0.000   0.000
  0.000   0.000   0.000   1.590  -0.000   0.000  -0.387  -0.000
  0.000   0.000   0.000  -0.000   4.890   0.000  -0.000  -1.470
  0.000   0.000  -1.470   0.000   0.000   0.457  -0.000   0.000
  0.000   0.000  -0.000  -0.387   0.000   0.000   0.095   0.000
  0.000   0.000   0.000  -0.000  -1.470   0.000   0.000   0.457


------------------------ aborting loop because EDIFF is reached ----------------------------------------


 


 total charge     
 
# of ion       s       p       d       tot
------------------------------------------
    1        0.740   1.414   0.000   2.154
    2        0.740   1.414   0.000   2.154
    3        1.225   2.787   0.000   4.012
    4        1.224   2.788   0.000   4.013
--------------------------------------------------
tot          3.930   8.404   0.000  12.334
 
    CHARGE:  cpu time    0.0023: real time    0.0023
    FORLOC:  cpu time    0.0001: real time    0.0001
    FORNL :  cpu time    0.0060: real time    0.0065
    STRESS:  cpu time    0.0358: real time    0.0370
    FORCOR:  cpu time    0.0019: real time    0.0023
    FORHAR:  cpu time    0.0007: real time    0.0012
    MIXING:  cpu time    0.0001: real time    0.0001
    OFIELD:  cpu time    0.0000: real time    0.0003

  FORCE on cell =-STRESS in cart. coord.  units (eV):
  Direction    XX          YY          ZZ          XY          YZ          ZX
  --------------------------------------------------------------------------------------
  Alpha Z    34.59384    34.59384    34.59384
  Ewald     121.29472   121.29472  -664.47690    -0.00000    -0.00000    -0.00000
  Hartree   224.22632   224.22632  -166.56887     0.00000    -0.00000     0.00000
  E(xc)     -63.13106   -63.13106   -64.97024     0.00000     0.00000     0.00000
  Local    -544.85791  -544.85717   600.67331     0.00000     0.00000    -0.00010
  n-local   -30.88929   -29.33946   -30.02739     0.12846     0.00000    -0.00000
  augment     2.16785     2.16772     2.53408    -0.00000     0.00000    -0.00000
  Kinetic   258.43007   253.22376   288.61477     2.21730     0.00000     0.00001
  Fock        0.00000     0.00000     0.00000     0.00000     0.00000     0.00000
  -------------------------------------------------------------------------------------
  Total       0.00660     0.00660     0.37259    -0.00000     0.00000     0.00000
  in kB       0.25708     0.25708    14.50849    -0.00000     0.00000     0.00000
  external pressure =        5.01 kB  Pullay stress =        0.00 kB


 VOLUME and BASIS-vectors are now :
 -----------------------------------------------------------------------------
  energy-cutoff  :      500.00
  volume of cell :       41.15
      direct lattice vectors                 reciprocal lattice vectors
     1.256237318 -2.175866861  0.000000000     0.398013968 -0.229793472  0.000000000
     1.256237318  2.175866861  0.000000000     0.398013968  0.229793472  0.000000000
     0.000000000  0.000000000  7.526459174     0.000000000  0.000000000  0.132864602

  length of vectors
     2.512474636  2.512474636  7.526459174     0.459586943  0.459586943  0.132864602


 FORCES acting on ions
    electron-ion (+dipol)            ewald-force                    non-local-force                 convergence-correction
 -----------------------------------------------------------------------------------------------
   0.188E-13 -.121E-04 -.210E-15   0.466E-14 -.651E-11 -.139E-13   -.555E-16 -.389E-15 0.000E+00   0.567E-15 -.659E-07 -.732E-14
   0.593E-14 -.159E-04 -.245E-12   0.347E-14 0.130E-10 0.139E-13   -.278E-16 0.000E+00 0.000E+00   0.251E-15 -.701E-07 0.107E-13
   0.205E-12 -.678E-06 -.805E-12   -.352E-14 0.651E-11 -.231E-13   -.104E-16 -.139E-16 0.000E+00   0.335E-14 0.794E-08 -.123E-13
   0.168E-12 -.273E-05 -.359E-11   -.271E-14 -.130E-10 0.231E-13   0.000E+00 0.000E+00 0.000E+00   0.733E-14 0.571E-08 0.238E-13
 -----------------------------------------------------------------------------------------------
   0.398E-12 -.315E-04 -.464E-11   0.191E-14 0.202E-14 0.000E+00   -.937E-16 -.402E-15 0.000E+00   0.115E-13 -.122E-06 0.148E-13
 
 
 POSITION                                       TOTAL-FORCE (eV/Angst)
 -----------------------------------------------------------------------------------
      0.00000      0.00000      0.00000        -0.000000      0.000000      0.000000
      1.25624      0.72529      3.76323         0.000000     -0.000000      0.000000
      1.25624      0.72529      0.00000         0.000000      0.000000      0.000000
      1.25624     -0.72529      3.76323         0.000000      0.000000      0.000000
 -----------------------------------------------------------------------------------
    total drift:                                0.000000     -0.000032     -0.000000


--------------------------------------------------------------------------------------------------------



  FREE ENERGIE OF THE ION-ELECTRON SYSTEM (eV)
  ---------------------------------------------------
  free  energy   TOTEN  =       -35.16104282 eV

  energy  without entropy=      -35.16104282  energy(sigma->0) =      -35.16104282
 


--------------------------------------------------------------------------------------------------------


    POTLOK:  cpu time    0.0047: real time    0.0049


--------------------------------------------------------------------------------------------------------


 writing wavefunctions
     LOOP+:  cpu time    1.0135: real time    1.0406
    4ORBIT:  cpu time    0.0000: real time    0.0000
 


 total charge     
 
# of ion       s       p       d       tot
------------------------------------------
    1        0.740   1.414   0.000   2.154
    2        0.740   1.414   0.000   2.154
    3        1.225   2.787   0.000   4.012
    4        1.224   2.788   0.000   4.013
--------------------------------------------------
tot          3.930   8.404   0.000  12.334
 

 total amount of memory used by VASP MPI-rank0    32803. kBytes
=======================================================================

   base      :      30000. kBytes
   nonl-proj :       1451. kBytes
   fftplans  :        561. kBytes
   grid      :        600. kBytes
   one-center:         12. kBytes
   wavefun   :        179. kBytes
 
  
  
 General timing and accounting informations for this job:
 ========================================================
  
                  Total CPU time used (sec):        1.445
                            User time (sec):        1.215
                          System time (sec):        0.230
                         Elapsed time (sec):        1.823
  
                   Maximum memory used (kb):       69344.
                   Average memory used (kb):           0.
  
                          Minor page faults:         9982
                          Major page faults:            1
                 Voluntary context switches:         5742
