 vasp.5.4.4.18Apr17-6-g9f103f2a35 (build May 10 2019 17:57:18) complex          
  
 executed on             LinuxIFC date 2024.07.15  20:34:07
 running on   20 total cores
 distrk:  each k-point on   20 cores,    1 groups
 distr:  one band on NCORES_PER_BAND=   1 cores,   20 groups


--------------------------------------------------------------------------------------------------------


 INCAR:
 POTCAR:    PAW_PBE B 06Sep2000                   
 POTCAR:    PAW_PBE N 08Apr2002                   

 ----------------------------------------------------------------------------- 
|                                                                             |
|           W    W    AA    RRRRR   N    N  II  N    N   GGGG   !!!           |
|           W    W   A  A   R    R  NN   N  II  NN   N  G    G  !!!           |
|           W    W  A    A  R    R  N N  N  II  N N  N  G       !!!           |
|           W WW W  AAAAAA  RRRRR   N  N N  II  N  N N  G  GGG   !            |
|           WW  WW  A    A  R   R   N   NN  II  N   NN  G    G                |
|           W    W  A    A  R    R  N    N  II  N    N   GGGG   !!!           |
|                                                                             |
|      For optimal performance we recommend to set                            |
|        NCORE= 4 - approx SQRT( number of cores)                             |
|      NCORE specifies how many cores store one orbital (NPAR=cpu/NCORE).     |
|      This setting can  greatly improve the performance of VASP for DFT.     |
|      The default,   NCORE=1            might be grossly inefficient         |
|      on modern multi-core architectures or massively parallel machines.     |
|      Do your own testing !!!!                                               |
|      Unfortunately you need to use the default for GW and RPA calculations. |
|      (for HF NCORE is supported but not extensively tested yet)             |
|                                                                             |
 ----------------------------------------------------------------------------- 

 POTCAR:    PAW_PBE B 06Sep2000                   
   SHA256 =  a32ced30f5ae56fd4d10b4325ff17eb3e4e38ee0f4288bc219fb012fddfa6e97 B/
   COPYR  = (c) Copyright 06Sep2000 Georg Kresse                                
   COPYR  = This file is part of the software VASP. Any use, copying, and all ot
   COPYR  = If you do not have a valid VASP license, you may not use, copy or di
   VRHFIN =B: s2p1                                                              
   LEXCH  = PE                                                                  
   EATOM  =    71.1703 eV,    5.2309 Ry                                         
                                                                                
   TITEL  = PAW_PBE B 06Sep2000                                                 
   LULTRA =        F    use ultrasoft PP ?                                      
   IUNSCR =        1    unscreen: 0-lin 1-nonlin 2-no                           
   RPACOR =    1.200    partial core radius                                     
   POMASS =   10.811; ZVAL   =    3.000    mass and valenz                      
   RCORE  =    1.700    outmost cutoff radius                                   
   RWIGS  =    1.710; RWIGS  =    0.905    wigner-seitz radius (au A)           
   ENMAX  =  318.614; ENMIN  =  238.960 eV                                      
   ICORE  =        2    local potential                                         
   LCOR   =        T    correct aug charges                                     
   LPAW   =        T    paw PP                                                  
   EAUG   =  535.514                                                            
   DEXC   =    0.000                                                            
   RMAX   =    1.732    core radius for proj-oper                               
   RAUG   =    1.300    factor for augmentation sphere                          
   RDEP   =    1.757    radius for radial grids                                 
   RDEPT  =    1.436    core radius for aug-charge                              
                                                                                
   Atomic configuration                                                         
    4 entries                                                                   
     n  l   j            E        occ.                                          
     1  0  0.50      -180.5896   2.0000                                         
     2  0  0.50        -9.4431   2.0000                                         
     2  1  0.50        -3.6068   1.0000                                         
     3  2  1.50        -4.0817   0.0000                                         
   Description                                                                  
     l       E           TYP  RCUT    TYP  RCUT                                 
     0     -9.4430752     23  1.500                                             
     0      0.8675899     23  1.500                                             
     1     -3.6067955     23  1.700                                             
     1      6.1086146     23  1.700                                             
     2     -4.0817478      7  1.700                                             
  local pseudopotential read in
  partial core-charges read in
  partial kinetic energy density read in
  atomic valenz-charges read in
  non local Contribution for L=           0  read in
    real space projection operators read in
  non local Contribution for L=           0  read in
    real space projection operators read in
  non local Contribution for L=           1  read in
    real space projection operators read in
  non local Contribution for L=           1  read in
    real space projection operators read in
    PAW grid and wavefunctions read in
 
   number of l-projection  operators is LMAX  =           4
   number of lm-projection operators is LMMAX =           8
 
 POTCAR:    PAW_PBE N 08Apr2002                   
   SHA256 =  e053789ff3a61a86a1b75d8a110fcc91f86041011e7b0817c7c99e4e8a6349d7 N/
   COPYR  = (c) Copyright 08Apr2002 Georg Kresse                                
   COPYR  = This file is part of the software VASP. Any use, copying, and all ot
   COPYR  = If you do not have a valid VASP license, you may not use, copy or di
   VRHFIN =N: s2p3                                                              
   LEXCH  = PE                                                                  
   EATOM  =   264.5486 eV,   19.4438 Ry                                         
                                                                                
   TITEL  = PAW_PBE N 08Apr2002                                                 
   LULTRA =        F    use ultrasoft PP ?                                      
   IUNSCR =        1    unscreen: 0-lin 1-nonlin 2-no                           
   RPACOR =    1.200    partial core radius                                     
   POMASS =   14.001; ZVAL   =    5.000    mass and valenz                      
   RCORE  =    1.500    outmost cutoff radius                                   
   RWIGS  =    1.400; RWIGS  =    0.741    wigner-seitz radius (au A)           
   ENMAX  =  400.000; ENMIN  =  300.000 eV                                      
   ICORE  =        2    local potential                                         
   LCOR   =        T    correct aug charges                                     
   LPAW   =        T    paw PP                                                  
   EAUG   =  627.112                                                            
   DEXC   =    0.000                                                            
   RMAX   =    1.529    core radius for proj-oper                               
   RAUG   =    1.300    factor for augmentation sphere                          
   RDEP   =    1.514    radius for radial grids                                 
   RDEPT  =    1.338    core radius for aug-charge                              
                                                                                
   Atomic configuration                                                         
    4 entries                                                                   
     n  l   j            E        occ.                                          
     1  0  0.50      -384.7179   2.0000                                         
     2  0  0.50       -18.5828   2.0000                                         
     2  1  0.50        -7.0898   3.0000                                         
     3  2  1.50        -6.8029   0.0000                                         
   Description                                                                  
     l       E           TYP  RCUT    TYP  RCUT                                 
     0    -18.5828119     23  1.200                                             
     0    -13.5018863     23  1.200                                             
     1     -7.0897853     23  1.500                                             
     1      9.5240782     23  1.500                                             
     2     -6.8029130      7  1.500                                             
  local pseudopotential read in
  partial core-charges read in
  partial kinetic energy density read in
  atomic valenz-charges read in
  non local Contribution for L=           0  read in
    real space projection operators read in
  non local Contribution for L=           0  read in
    real space projection operators read in
  non local Contribution for L=           1  read in
    real space projection operators read in
  non local Contribution for L=           1  read in
    real space projection operators read in
    PAW grid and wavefunctions read in
 
   number of l-projection  operators is LMAX  =           4
   number of lm-projection operators is LMMAX =           8
 
  PAW_PBE B 06Sep2000                   :
 energy of atom  1       EATOM=  -71.1703
 kinetic energy error for atom=    0.0012 (will be added to EATOM!!)
  PAW_PBE N 08Apr2002                   :
 energy of atom  2       EATOM= -264.5486
 kinetic energy error for atom=    0.0138 (will be added to EATOM!!)
 
 
 POSCAR: B2 N2                                   
  positions in direct lattice
  velocities in cartesian coordinates
 exchange correlation table for  LEXCH =        8
   RHO(1)=    0.500       N(1)  =     2000
   RHO(2)=  100.500       N(2)  =     4000
 


--------------------------------------------------------------------------------------------------------


 ion  position               nearest neighbor table
   1  0.000  0.000  0.000-   3 1.45   3 1.45   3 1.45
   2  0.333  0.667  0.500-   4 1.45   4 1.45   4 1.45
   3  0.333  0.667  0.000-   1 1.45   1 1.45   1 1.45
   4  0.667  0.333  0.500-   2 1.45   2 1.45   2 1.45
 
  LATTYP: Found a hexagonal cell.
 ALAT       =     2.5124746362
 C/A-ratio  =     2.9956358826
  
  Lattice vectors:
  
 A1 = (   1.2562373181,  -2.1758668613,   0.0000000000)
 A2 = (   1.2562373181,   2.1758668613,   0.0000000000)
 A3 = (   0.0000000000,   0.0000000000,   7.5264591742)


Analysis of symmetry for initial positions (statically):
=====================================================================
 Subroutine PRICEL returns:
 Original cell was already a primitive cell.
 

 Routine SETGRP: Setting up the symmetry group for a 
 hexagonal supercell.


 Subroutine GETGRP returns: Found 12 space group operations
 (whereof 12 operations were pure point group operations)
 out of a pool of 24 trial point group operations.


The static configuration has the point symmetry D_3h.


Analysis of symmetry for dynamics (positions and initial velocities):
=====================================================================
 Subroutine PRICEL returns:
 Original cell was already a primitive cell.
 

 Routine SETGRP: Setting up the symmetry group for a 
 hexagonal supercell.


 Subroutine GETGRP returns: Found 12 space group operations
 (whereof 12 operations were pure point group operations)
 out of a pool of 24 trial point group operations.


The dynamic configuration has the point symmetry D_3h.


 Subroutine INISYM returns: Found 12 space group operations
 (whereof 12 operations are pure point group operations),
 and found     1 'primitive' translations

 
 
 KPOINTS: A                                       

Automatic generation of k-mesh.
Space group operators:
 irot       det(A)        alpha          n_x          n_y          n_z        tau_x        tau_y        tau_z
    1     1.000000     0.000000     1.000000     0.000000     0.000000     0.000000     0.000000     0.000000
    2    -1.000000    60.000000     0.000000     0.000000    -1.000000     0.000000     0.000000     0.000000
    3     1.000000   120.000000     0.000000     0.000000    -1.000000     0.000000     0.000000     0.000000
    4    -1.000000   180.000000     0.000000     0.000000     1.000000     0.000000     0.000000     0.000000
    5     1.000000   120.000000     0.000000     0.000000     1.000000     0.000000     0.000000     0.000000
    6    -1.000000    60.000000     0.000000     0.000000     1.000000     0.000000     0.000000     0.000000
    7    -1.000000   180.000000     0.500000    -0.866025     0.000000     0.000000     0.000000     0.000000
    8     1.000000   180.000000     0.000000     1.000000     0.000000     0.000000     0.000000     0.000000
    9    -1.000000   180.000000    -0.500000    -0.866025     0.000000     0.000000     0.000000     0.000000
   10     1.000000   180.000000     0.866025     0.500000     0.000000     0.000000     0.000000     0.000000
   11    -1.000000   180.000000     1.000000     0.000000     0.000000     0.000000     0.000000     0.000000
   12     1.000000   180.000000     0.866025    -0.500000     0.000000     0.000000     0.000000     0.000000
 
 Subroutine IBZKPT returns following result:
 ===========================================
 
 Found     30 irreducible k-points:
 
 Following reciprocal coordinates:
            Coordinates               Weight
  0.000000  0.000000  0.000000      1.000000
  0.125000  0.000000  0.000000      6.000000
  0.250000  0.000000  0.000000      6.000000
  0.375000  0.000000  0.000000      6.000000
  0.500000  0.000000  0.000000      3.000000
  0.125000  0.125000  0.000000      6.000000
  0.250000  0.125000  0.000000     12.000000
  0.375000  0.125000  0.000000     12.000000
  0.250000  0.250000  0.000000      6.000000
  0.375000  0.250000  0.000000      6.000000
  0.000000  0.000000  0.250000      2.000000
  0.125000  0.000000  0.250000     12.000000
  0.250000  0.000000  0.250000     12.000000
  0.375000  0.000000  0.250000     12.000000
  0.500000  0.000000  0.250000      6.000000
  0.125000  0.125000  0.250000     12.000000
  0.250000  0.125000  0.250000     24.000000
  0.375000  0.125000  0.250000     24.000000
  0.250000  0.250000  0.250000     12.000000
  0.375000  0.250000  0.250000     12.000000
  0.000000  0.000000  0.500000      1.000000
  0.125000  0.000000  0.500000      6.000000
  0.250000  0.000000  0.500000      6.000000
  0.375000  0.000000  0.500000      6.000000
  0.500000  0.000000  0.500000      3.000000
  0.125000  0.125000  0.500000      6.000000
  0.250000  0.125000  0.500000     12.000000
  0.375000  0.125000  0.500000     12.000000
  0.250000  0.250000  0.500000      6.000000
  0.375000  0.250000  0.500000      6.000000
 
 Following cartesian coordinates:
            Coordinates               Weight
  0.000000  0.000000  0.000000      1.000000
  0.049752 -0.028724  0.000000      6.000000
  0.099503 -0.057448  0.000000      6.000000
  0.149255 -0.086173  0.000000      6.000000
  0.199007 -0.114897  0.000000      3.000000
  0.099503  0.000000  0.000000      6.000000
  0.149255 -0.028724  0.000000     12.000000
  0.199007 -0.057448  0.000000     12.000000
  0.199007  0.000000  0.000000      6.000000
  0.248759 -0.028724  0.000000      6.000000
  0.000000  0.000000  0.033216      2.000000
  0.049752 -0.028724  0.033216     12.000000
  0.099503 -0.057448  0.033216     12.000000
  0.149255 -0.086173  0.033216     12.000000
  0.199007 -0.114897  0.033216      6.000000
  0.099503  0.000000  0.033216     12.000000
  0.149255 -0.028724  0.033216     24.000000
  0.199007 -0.057448  0.033216     24.000000
  0.199007  0.000000  0.033216     12.000000
  0.248759 -0.028724  0.033216     12.000000
  0.000000  0.000000  0.066432      1.000000
  0.049752 -0.028724  0.066432      6.000000
  0.099503 -0.057448  0.066432      6.000000
  0.149255 -0.086173  0.066432      6.000000
  0.199007 -0.114897  0.066432      3.000000
  0.099503  0.000000  0.066432      6.000000
  0.149255 -0.028724  0.066432     12.000000
  0.199007 -0.057448  0.066432     12.000000
  0.199007  0.000000  0.066432      6.000000
  0.248759 -0.028724  0.066432      6.000000
 


--------------------------------------------------------------------------------------------------------




 Dimension of arrays:
   k-points           NKPTS =     30   k-points in BZ     NKDIM =     30   number of bands    NBANDS=     20
   number of dos      NEDOS =    301   number of ions     NIONS =      4
   non local maximal  LDIM  =      4   non local SUM 2l+1 LMDIM =      8
   total plane-waves  NPLWV =   8232
   max r-space proj   IRMAX =      1   max aug-charges    IRDMAX=  25156
   dimension x,y,z NGX =    14 NGY =   14 NGZ =   42
   dimension x,y,z NGXF=    28 NGYF=   28 NGZF=   84
   support grid    NGXF=    56 NGYF=   56 NGZF=  168
   ions per type =               2   2
   NGX,Y,Z   is equivalent  to a cutoff of   9.26,  9.26,  9.28 a.u.
   NGXF,Y,Z  is equivalent  to a cutoff of  18.53, 18.53, 18.55 a.u.

 SYSTEM =  BN                                      
 POSCAR =  B2 N2                                   

 Startparameter for this run:
   NWRITE =      2    write-flag & timer
   PREC   = normal    normal or accurate (medium, high low for compatibility)
   ISTART =      1    job   : 0-new  1-cont  2-samecut
   ICHARG =      0    charge: 1-file 2-atom 10-const
   ISPIN  =      1    spin polarized calculation?
   LNONCOLLINEAR =      F non collinear calculations
   LSORBIT =      F    spin-orbit coupling
   INIWAV =      1    electr: 0-lowe 1-rand  2-diag
   LASPH  =      F    aspherical Exc in radial PAW
   METAGGA=      F    non-selfconsistent MetaGGA calc.

 Electronic Relaxation 1
   ENCUT  =  500.0 eV  36.75 Ry    6.06 a.u.   4.58  4.58 13.72*2*pi/ulx,y,z
   ENINI  =  500.0     initial cutoff
   ENAUG  =  627.1 eV  augmentation charge cutoff
   NELM   =     60;   NELMIN=  2; NELMDL=  0     # of ELM steps 
   EDIFF  = 0.1E-03   stopping-criterion for ELM
   LREAL  =      F    real-space projection
   NLSPLINE    = F    spline interpolate recip. space projectors
   LCOMPAT=      F    compatible to vasp.4.4
   GGA_COMPAT  = T    GGA compatible to vasp.4.4-vasp.4.6
   LMAXPAW     = -100 max onsite density
   LMAXMIX     =    2 max onsite mixed and CHGCAR
   VOSKOWN=      0    Vosko Wilk Nusair interpolation
   ROPT   =    0.00000   0.00000
 Ionic relaxation
   EDIFFG = 0.1E-02   stopping-criterion for IOM
   NSW    =      0    number of steps for IOM
   NBLOCK =      1;   KBLOCK =      1    inner block; outer block 
   IBRION =     -1    ionic relax: 0-MD 1-quasi-New 2-CG
   NFREE  =      0    steps in history (QN), initial steepest desc. (CG)
   ISIF   =      2    stress and relaxation
   IWAVPR =     10    prediction:  0-non 1-charg 2-wave 3-comb
   ISYM   =      2    0-nonsym 1-usesym 2-fastsym
   LCORR  =      T    Harris-Foulkes like correction to forces

   POTIM  = 0.5000    time-step for ionic-motion
   TEIN   =    0.0    initial temperature
   TEBEG  =    0.0;   TEEND  =   0.0 temperature during run
   SMASS  =  -3.00    Nose mass-parameter (am)
   estimated Nose-frequenzy (Omega)   =  0.10E-29 period in steps =****** mass=  -0.144E-27a.u.
   SCALEE = 1.0000    scale energy and forces
   NPACO  =    256;   APACO  = 16.0  distance and # of slots for P.C.
   PSTRESS=    0.0 pullay stress

  Mass of Ions in am
   POMASS =  10.81 14.00
  Ionic Valenz
   ZVAL   =   3.00  5.00
  Atomic Wigner-Seitz radii
   RWIGS  =  -1.00 -1.00
  virtual crystal weights 
   VCA    =   1.00  1.00
   NELECT =      16.0000    total number of electrons
   NUPDOWN=      -1.0000    fix difference up-down

 DOS related values:
   EMIN   =  10.00;   EMAX   =-10.00  energy-range for DOS
   EFERMI =   0.00
   ISMEAR =     0;   SIGMA  =   0.05  broadening in eV -4-tet -1-fermi 0-gaus

 Electronic relaxation 2 (details)
   IALGO  =     38    algorithm
   LDIAG  =      T    sub-space diagonalisation (order eigenvalues)
   LSUBROT=      F    optimize rotation matrix (better conditioning)
   TURBO    =      0    0=normal 1=particle mesh
   IRESTART =      0    0=no restart 2=restart with 2 vectors
   NREBOOT  =      0    no. of reboots
   NMIN     =      0    reboot dimension
   EREF     =   0.00    reference energy to select bands
   IMIX   =      4    mixing-type and parameters
     AMIX     =   0.40;   BMIX     =  1.00
     AMIX_MAG =   1.60;   BMIX_MAG =  1.00
     AMIN     =   0.10
     WC   =   100.;   INIMIX=   1;  MIXPRE=   1;  MAXMIX= -45

 Intra band minimization:
   WEIMIN = 0.0000     energy-eigenvalue tresh-hold
   EBREAK =  0.13E-05  absolut break condition
   DEPER  =   0.30     relativ break condition  

   TIME   =   0.40     timestep for ELM

  volume/ion in A,a.u.               =      10.29        69.42
  Fermi-wavevector in a.u.,A,eV,Ry     =   1.194923  2.258077 19.426956  1.427841
  Thomas-Fermi vector in A             =   2.330901
 
 Write flags
   LWAVE        =      T    write WAVECAR
   LDOWNSAMPLE  =      F    k-point downsampling of WAVECAR
   LCHARG       =      T    write CHGCAR
   LVTOT        =      F    write LOCPOT, total local potential
   LVHAR        =      F    write LOCPOT, Hartree potential only
   LELF         =      F    write electronic localiz. function (ELF)
   LORBIT       =     11    0 simple, 1 ext, 2 COOP (PROOUT), +10 PAW based schemes


 Dipole corrections
   LMONO  =      F    monopole corrections only (constant potential shift)
   LDIPOL =      F    correct potential (dipole corrections)
   IDIPOL =      0    1-x, 2-y, 3-z, 4-all directions 
   EPSILON=  1.0000000 bulk dielectric constant

 Exchange correlation treatment:
   GGA     =    --    GGA type
   LEXCH   =     8    internal setting for exchange type
   VOSKOWN=      0    Vosko Wilk Nusair interpolation
   LHFCALC =     F    Hartree Fock is set to
   LHFONE  =     F    Hartree Fock one center treatment
   AEXX    =    0.0000 exact exchange contribution

 Linear response parameters
   LEPSILON=     F    determine dielectric tensor
   LRPA    =     F    only Hartree local field effects (RPA)
   LNABLA  =     F    use nabla operator in PAW spheres
   LVEL    =     F    velocity operator in full k-point grid
   LINTERFAST=   F  fast interpolation
   KINTER  =     0    interpolate to denser k-point grid
   CSHIFT  =0.1000    complex shift for real part using Kramers Kronig
   OMEGAMAX=  -1.0    maximum frequency
   DEG_THRESHOLD= 0.2000000E-02 threshold for treating states as degnerate
   RTIME   =   -0.100 relaxation time in fs
  (WPLASMAI=    0.000 imaginary part of plasma frequency in eV, 0.658/RTIME)
   DFIELD  = 0.0000000 0.0000000 0.0000000 field for delta impulse in time
 
 Orbital magnetization related:
   ORBITALMAG=     F  switch on orbital magnetization
   LCHIMAG   =     F  perturbation theory with respect to B field
   DQ        =  0.001000  dq finite difference perturbation B field
   LLRAUG    =     F  two centre corrections for induced B field



--------------------------------------------------------------------------------------------------------


 Static calculation
 charge density and potential will be updated during run
 non-spin polarized calculation
 Variant of blocked Davidson
 Davidson routine will perform the subspace rotation
 perform sub-space diagonalisation
    after iterative eigenvector-optimisation
 modified Broyden-mixing scheme, WC =      100.0
 initial mixing is a Kerker type mixing with AMIX =  0.4000 and BMIX =      1.0000
 Hartree-type preconditioning will be used
 using additional bands           12
 reciprocal scheme for non local part
 use partial core corrections
 calculate Harris-corrections to forces 
   (improved forces if not selfconsistent)
 use gradient corrections 
 use of overlap-Matrix (Vanderbilt PP)
 Gauss-broadening in eV      SIGMA  =   0.05


--------------------------------------------------------------------------------------------------------


  energy-cutoff  :      500.00
  volume of cell :       41.15
      direct lattice vectors                 reciprocal lattice vectors
     1.256237318 -2.175866861  0.000000000     0.398013968 -0.229793472  0.000000000
     1.256237318  2.175866861  0.000000000     0.398013968  0.229793472  0.000000000
     0.000000000  0.000000000  7.526459174     0.000000000  0.000000000  0.132864602

  length of vectors
     2.512474636  2.512474636  7.526459174     0.459586943  0.459586943  0.132864602


 
 old parameters found on file WAVECAR:
  energy-cutoff  :      500.00
  volume of cell :       41.15
      direct lattice vectors                 reciprocal lattice vectors
     1.256237318 -2.175866861  0.000000000     0.398013968 -0.229793472  0.000000000
     1.256237318  2.175866861  0.000000000     0.398013968  0.229793472  0.000000000
     0.000000000  0.000000000  7.526459174     0.000000000  0.000000000  0.132864602

  length of vectors

 
 k-points in units of 2pi/SCALE and weight: A                                       
   0.00000000  0.00000000  0.00000000       0.004
   0.04975175 -0.02872418  0.00000000       0.023
   0.09950349 -0.05744837  0.00000000       0.023
   0.14925524 -0.08617255  0.00000000       0.023
   0.19900698 -0.11489674  0.00000000       0.012
   0.09950349  0.00000000  0.00000000       0.023
   0.14925524 -0.02872418  0.00000000       0.047
   0.19900698 -0.05744837  0.00000000       0.047
   0.19900698  0.00000000  0.00000000       0.023
   0.24875873 -0.02872418  0.00000000       0.023
   0.00000000  0.00000000  0.03321615       0.008
   0.04975175 -0.02872418  0.03321615       0.047
   0.09950349 -0.05744837  0.03321615       0.047
   0.14925524 -0.08617255  0.03321615       0.047
   0.19900698 -0.11489674  0.03321615       0.023
   0.09950349  0.00000000  0.03321615       0.047
   0.14925524 -0.02872418  0.03321615       0.094
   0.19900698 -0.05744837  0.03321615       0.094
   0.19900698  0.00000000  0.03321615       0.047
   0.24875873 -0.02872418  0.03321615       0.047
   0.00000000  0.00000000  0.06643230       0.004
   0.04975175 -0.02872418  0.06643230       0.023
   0.09950349 -0.05744837  0.06643230       0.023
   0.14925524 -0.08617255  0.06643230       0.023
   0.19900698 -0.11489674  0.06643230       0.012
   0.09950349  0.00000000  0.06643230       0.023
   0.14925524 -0.02872418  0.06643230       0.047
   0.19900698 -0.05744837  0.06643230       0.047
   0.19900698  0.00000000  0.06643230       0.023
   0.24875873 -0.02872418  0.06643230       0.023
 
 k-points in reciprocal lattice and weights: A                                       
   0.00000000  0.00000000  0.00000000       0.004
   0.12500000  0.00000000  0.00000000       0.023
   0.25000000  0.00000000  0.00000000       0.023
   0.37500000  0.00000000  0.00000000       0.023
   0.50000000  0.00000000  0.00000000       0.012
   0.12500000  0.12500000  0.00000000       0.023
   0.25000000  0.12500000  0.00000000       0.047
   0.37500000  0.12500000  0.00000000       0.047
   0.25000000  0.25000000  0.00000000       0.023
   0.37500000  0.25000000  0.00000000       0.023
   0.00000000  0.00000000  0.25000000       0.008
   0.12500000  0.00000000  0.25000000       0.047
   0.25000000  0.00000000  0.25000000       0.047
   0.37500000  0.00000000  0.25000000       0.047
   0.50000000  0.00000000  0.25000000       0.023
   0.12500000  0.12500000  0.25000000       0.047
   0.25000000  0.12500000  0.25000000       0.094
   0.37500000  0.12500000  0.25000000       0.094
   0.25000000  0.25000000  0.25000000       0.047
   0.37500000  0.25000000  0.25000000       0.047
   0.00000000  0.00000000  0.50000000       0.004
   0.12500000  0.00000000  0.50000000       0.023
   0.25000000  0.00000000  0.50000000       0.023
   0.37500000  0.00000000  0.50000000       0.023
   0.50000000  0.00000000  0.50000000       0.012
   0.12500000  0.12500000  0.50000000       0.023
   0.25000000  0.12500000  0.50000000       0.047
   0.37500000  0.12500000  0.50000000       0.047
   0.25000000  0.25000000  0.50000000       0.023
   0.37500000  0.25000000  0.50000000       0.023
 
 position of ions in fractional coordinates (direct lattice) 
   0.00000000  0.00000000  0.00000000
   0.33333333  0.66666667  0.50000000
   0.33333333  0.66666667  0.00000000
   0.66666667  0.33333333  0.50000000
 
 position of ions in cartesian coordinates  (Angst):
   0.00000000  0.00000000  0.00000000
   1.25623732  0.72528895  3.76322959
   1.25623732  0.72528895  0.00000000
   1.25623732 -0.72528895  3.76322959
 


--------------------------------------------------------------------------------------------------------


 k-point  1 :   0.0000 0.0000 0.0000  plane waves:    1041
 k-point  2 :   0.1250 0.0000 0.0000  plane waves:    1056
 k-point  3 :   0.2500 0.0000 0.0000  plane waves:    1062
 k-point  4 :   0.3750 0.0000 0.0000  plane waves:    1040
 k-point  5 :   0.5000 0.0000 0.0000  plane waves:    1032
 k-point  6 :   0.1250 0.1250 0.0000  plane waves:    1053
 k-point  7 :   0.2500 0.1250 0.0000  plane waves:    1050
 k-point  8 :   0.3750 0.1250 0.0000  plane waves:    1041
 k-point  9 :   0.2500 0.2500 0.0000  plane waves:    1025
 k-point 10 :   0.3750 0.2500 0.0000  plane waves:    1024
 k-point 11 :   0.0000 0.0000 0.2500  plane waves:    1041
 k-point 12 :   0.1250 0.0000 0.2500  plane waves:    1055
 k-point 13 :   0.2500 0.0000 0.2500  plane waves:    1061
 k-point 14 :   0.3750 0.0000 0.2500  plane waves:    1041
 k-point 15 :   0.5000 0.0000 0.2500  plane waves:    1032
 k-point 16 :   0.1250 0.1250 0.2500  plane waves:    1058
 k-point 17 :   0.2500 0.1250 0.2500  plane waves:    1045
 k-point 18 :   0.3750 0.1250 0.2500  plane waves:    1043
 k-point 19 :   0.2500 0.2500 0.2500  plane waves:    1039
 k-point 20 :   0.3750 0.2500 0.2500  plane waves:    1028
 k-point 21 :   0.0000 0.0000 0.5000  plane waves:    1048
 k-point 22 :   0.1250 0.0000 0.5000  plane waves:    1060
 k-point 23 :   0.2500 0.0000 0.5000  plane waves:    1050
 k-point 24 :   0.3750 0.0000 0.5000  plane waves:    1040
 k-point 25 :   0.5000 0.0000 0.5000  plane waves:    1020
 k-point 26 :   0.1250 0.1250 0.5000  plane waves:    1056
 k-point 27 :   0.2500 0.1250 0.5000  plane waves:    1048
 k-point 28 :   0.3750 0.1250 0.5000  plane waves:    1032
 k-point 29 :   0.2500 0.2500 0.5000  plane waves:    1048
 k-point 30 :   0.3750 0.2500 0.5000  plane waves:    1044

 maximum and minimum number of plane-waves per node :      1062     1020

 maximum number of plane-waves:      1062
 maximum index in each direction: 
   IXMAX=    4   IYMAX=    4   IZMAX=   13
   IXMIN=   -5   IYMIN=   -4   IZMIN=  -14


 serial   3D FFT for wavefunctions
 parallel 3D FFT for charge:
    minimum data exchange during FFTs selected (reduces bandwidth)


 total amount of memory used by VASP MPI-rank0    35926. kBytes
=======================================================================

   base      :      30000. kBytes
   nonl-proj :       4216. kBytes
   fftplans  :        561. kBytes
   grid      :        600. kBytes
   one-center:         12. kBytes
   wavefun   :        537. kBytes
 
     INWAV:  cpu time    0.0533: real time    0.0539
 Broyden mixing: mesh for mixing (old mesh)
   NGX =  9   NGY =  9   NGZ = 27
  (NGX  = 28   NGY  = 28   NGZ  = 84)
  gives a total of   2187 points

 charge density for first step will be calculated from the start-wavefunctions


--------------------------------------------------------------------------------------------------------


 Maximum index for augmentation-charges         1246 (set IRDMAX)


--------------------------------------------------------------------------------------------------------


 initial charge from wavefunction
 First call to EWALD:  gamma=   0.513
 Maximum number of real-space cells 4x 4x 2
 Maximum number of reciprocal cells 2x 2x 5

    FEWALD:  cpu time    0.0015: real time    0.0015


--------------------------------------- Iteration      1(   1)  ---------------------------------------


    POTLOK:  cpu time    0.0029: real time    0.0048
    SETDIJ:  cpu time    0.0026: real time    0.0027
     EDDAV:  cpu time    0.1742: real time    0.1763
       DOS:  cpu time    0.0004: real time    0.0004
    CHARGE:  cpu time    0.0050: real time    0.0051
    MIXING:  cpu time    0.0004: real time    0.0004
    --------------------------------------------
      LOOP:  cpu time    0.1855: real time    0.1897

 eigenvalue-minimisations  :  1440
 total energy-change (2. order) :-0.3519538E+02  (-0.7537329E+01)
 number of electron      15.9999999 magnetization 
 augmentation part        0.4520148 magnetization 

 Broyden mixing:
  rms(total) = 0.32661E+00    rms(broyden)= 0.32631E+00
  rms(prec ) = 0.37434E+00
  weight for this iteration     100.00

 Free energy of the ion-electron system (eV)
  ---------------------------------------------------
  alpha Z        PSCENC =        34.59384069
  Ewald energy   TEWEN  =      -421.88703305
  -Hartree energ DENC   =      -285.01459892
  -exchange      EXHF   =         0.00000000
  -V(xc)+E(xc)   XCENC  =        56.90359122
  PAW double counting   =      2079.35219029    -2080.80157828
  entropy T*S    EENTRO =        -0.00000000
  eigenvalues    EBANDS =       -89.74972316
  atomic energy  EATOM  =       671.40793249
  Solvation  Ediel_sol  =         0.00000000
  ---------------------------------------------------
  free energy    TOTEN  =       -35.19537872 eV

  energy without entropy =      -35.19537872  energy(sigma->0) =      -35.19537872


--------------------------------------------------------------------------------------------------------




--------------------------------------- Iteration      1(   2)  ---------------------------------------


    POTLOK:  cpu time    0.0021: real time    0.0021
    SETDIJ:  cpu time    0.0023: real time    0.0024
     EDDAV:  cpu time    0.2412: real time    0.2441
       DOS:  cpu time    0.0002: real time    0.0002
    CHARGE:  cpu time    0.0051: real time    0.0051
    MIXING:  cpu time    0.0002: real time    0.0002
    --------------------------------------------
      LOOP:  cpu time    0.2511: real time    0.2541

 eigenvalue-minimisations  :  1400
 total energy-change (2. order) :-0.5638561E-03  (-0.9479704E-01)
 number of electron      15.9999999 magnetization 
 augmentation part        0.4703183 magnetization 

 Broyden mixing:
  rms(total) = 0.24134E+00    rms(broyden)= 0.24133E+00
  rms(prec ) = 0.24575E+00
  weight for this iteration     100.00

 eigenvalues of (default mixing * dielectric matrix)
  average eigenvalue GAMMA=   1.5253
  1.5253

 Free energy of the ion-electron system (eV)
  ---------------------------------------------------
  alpha Z        PSCENC =        34.59384069
  Ewald energy   TEWEN  =      -421.88703305
  -Hartree energ DENC   =      -281.86968254
  -exchange      EXHF   =         0.00000000
  -V(xc)+E(xc)   XCENC  =        56.69079392
  PAW double counting   =      2003.61487247    -2005.05030062
  entropy T*S    EENTRO =        -0.00000000
  eigenvalues    EBANDS =       -92.69636594
  atomic energy  EATOM  =       671.40793249
  Solvation  Ediel_sol  =         0.00000000
  ---------------------------------------------------
  free energy    TOTEN  =       -35.19594257 eV

  energy without entropy =      -35.19594257  energy(sigma->0) =      -35.19594257


--------------------------------------------------------------------------------------------------------




--------------------------------------- Iteration      1(   3)  ---------------------------------------


    POTLOK:  cpu time    0.0021: real time    0.0021
    SETDIJ:  cpu time    0.0022: real time    0.0022
     EDDAV:  cpu time    0.3270: real time    0.3309
       DOS:  cpu time    0.0002: real time    0.0002
    CHARGE:  cpu time    0.0051: real time    0.0051
    MIXING:  cpu time    0.0002: real time    0.0002
    --------------------------------------------
      LOOP:  cpu time    0.3367: real time    0.3407

 eigenvalue-minimisations  :  1600
 total energy-change (2. order) : 0.1364799E-02  (-0.9541135E-03)
 number of electron      15.9999999 magnetization 
 augmentation part        0.4711162 magnetization 

 Broyden mixing:
  rms(total) = 0.12241E+00    rms(broyden)= 0.12241E+00
  rms(prec ) = 0.12435E+00
  weight for this iteration     100.00

 eigenvalues of (default mixing * dielectric matrix)
  average eigenvalue GAMMA=   1.7865
  1.0774  2.4956

 Free energy of the ion-electron system (eV)
  ---------------------------------------------------
  alpha Z        PSCENC =        34.59384069
  Ewald energy   TEWEN  =      -421.88703305
  -Hartree energ DENC   =      -281.70294830
  -exchange      EXHF   =         0.00000000
  -V(xc)+E(xc)   XCENC  =        56.68118782
  PAW double counting   =      1923.74958156    -1925.19873855
  entropy T*S    EENTRO =        -0.00000000
  eigenvalues    EBANDS =       -92.83840043
  atomic energy  EATOM  =       671.40793249
  Solvation  Ediel_sol  =         0.00000000
  ---------------------------------------------------
  free energy    TOTEN  =       -35.19457777 eV

  energy without entropy =      -35.19457777  energy(sigma->0) =      -35.19457777


--------------------------------------------------------------------------------------------------------




--------------------------------------- Iteration      1(   4)  ---------------------------------------


    POTLOK:  cpu time    0.0020: real time    0.0022
    SETDIJ:  cpu time    0.0022: real time    0.0023
     EDDAV:  cpu time    0.3144: real time    0.3181
       DOS:  cpu time    0.0002: real time    0.0002
    CHARGE:  cpu time    0.0050: real time    0.0051
    MIXING:  cpu time    0.0002: real time    0.0002
    --------------------------------------------
      LOOP:  cpu time    0.3240: real time    0.3280

 eigenvalue-minimisations  :  1680
 total energy-change (2. order) : 0.2792523E-03  (-0.1461375E-03)
 number of electron      15.9999999 magnetization 
 augmentation part        0.4700497 magnetization 

 Broyden mixing:
  rms(total) = 0.33608E-02    rms(broyden)= 0.33593E-02
  rms(prec ) = 0.52211E-02
  weight for this iteration     100.00

 eigenvalues of (default mixing * dielectric matrix)
  average eigenvalue GAMMA=   1.5760
  2.5032  1.1124  1.1124

 Free energy of the ion-electron system (eV)
  ---------------------------------------------------
  alpha Z        PSCENC =        34.59384069
  Ewald energy   TEWEN  =      -421.88703305
  -Hartree energ DENC   =      -281.71190232
  -exchange      EXHF   =         0.00000000
  -V(xc)+E(xc)   XCENC  =        56.68704728
  PAW double counting   =      1850.00080345    -1851.46312399
  entropy T*S    EENTRO =        -0.00000000
  eigenvalues    EBANDS =       -92.82186308
  atomic energy  EATOM  =       671.40793249
  Solvation  Ediel_sol  =         0.00000000
  ---------------------------------------------------
  free energy    TOTEN  =       -35.19429852 eV

  energy without entropy =      -35.19429852  energy(sigma->0) =      -35.19429852


--------------------------------------------------------------------------------------------------------




--------------------------------------- Iteration      1(   5)  ---------------------------------------


    POTLOK:  cpu time    0.0020: real time    0.0022
    SETDIJ:  cpu time    0.0022: real time    0.0023
     EDDAV:  cpu time    0.2351: real time    0.2379
       DOS:  cpu time    0.0002: real time    0.0002
    --------------------------------------------
      LOOP:  cpu time    0.2395: real time    0.2425

 eigenvalue-minimisations  :  1380
 total energy-change (2. order) : 0.2094875E-04  (-0.1763929E-04)
 number of electron      15.9999999 magnetization 
 augmentation part        0.4700497 magnetization 

 Free energy of the ion-electron system (eV)
  ---------------------------------------------------
  alpha Z        PSCENC =        34.59384069
  Ewald energy   TEWEN  =      -421.88703305
  -Hartree energ DENC   =      -281.57616577
  -exchange      EXHF   =         0.00000000
  -V(xc)+E(xc)   XCENC  =        56.67930323
  PAW double counting   =      1850.48118402    -1851.94190662
  entropy T*S    EENTRO =        -0.00000000
  eigenvalues    EBANDS =       -92.95143256
  atomic energy  EATOM  =       671.40793249
  Solvation  Ediel_sol  =         0.00000000
  ---------------------------------------------------
  free energy    TOTEN  =       -35.19427757 eV

  energy without entropy =      -35.19427757  energy(sigma->0) =      -35.19427757


--------------------------------------------------------------------------------------------------------




 average (electrostatic) potential at core
  the test charge radii are     0.7672  0.7089
  (the norm of the test charge is              1.0000)
       1 -30.0232       2 -29.9908       3 -65.9324       4 -65.8949
 
 
 
 E-fermi :   1.4206     XC(G=0):  -9.2294     alpha+bet : -9.6182


 k-point     1 :       0.0000    0.0000    0.0000
  band No.  band energies     occupation 
      1     -16.3637      2.00000
      2     -16.2530      2.00000
      3      -4.4292      2.00000
      4      -3.3231      2.00000
      5      -0.0612      2.00000
      6      -0.0611      2.00000
      7      -0.0263      2.00000
      8      -0.0263      2.00000
      9       5.9608      0.00000
     10      10.1194      0.00000
     11      12.4689      0.00000
     12      12.7977      0.00000
     13      12.7978      0.00000
     14      12.8390      0.00000
     15      12.8391      0.00000
     16      14.0046      0.00000
     17      15.3005      0.00000
     18      16.1790      0.00000
     19      19.5848      0.00000
     20      25.6341      0.00000

 k-point     2 :       0.1250    0.0000    0.0000
  band No.  band energies     occupation 
      1     -16.0648      2.00000
      2     -15.9583      2.00000
      3      -4.0186      2.00000
      4      -2.9405      2.00000
      5      -1.2471      2.00000
      6      -1.2103      2.00000
      7      -0.5999      2.00000
      8      -0.5640      2.00000
      9       6.4873      0.00000
     10      10.1604      0.00000
     11      12.2862      0.00000
     12      12.6662      0.00000
     13      13.0504      0.00000
     14      13.6043      0.00000
     15      14.0744      0.00000
     16      14.1164      0.00000
     17      15.4253      0.00000
     18      16.2306      0.00000
     19      20.2091      0.00000
     20      24.3093      0.00000

 k-point     3 :       0.2500    0.0000    0.0000
  band No.  band energies     occupation 
      1     -15.2107      2.00000
      2     -15.1167      2.00000
      3      -3.8047      2.00000
      4      -3.7604      2.00000
      5      -2.8280      2.00000
      6      -1.8471      2.00000
      7      -1.6628      2.00000
      8      -1.6254      2.00000
      9       7.8422      0.00000
     10       9.5427      0.00000
     11      10.6170      0.00000
     12      11.7434      0.00000
     13      12.3745      0.00000
     14      14.4512      0.00000
     15      15.5365      0.00000
     16      17.2213      0.00000
     17      17.2724      0.00000
     18      18.1565      0.00000
     19      21.1054      0.00000
     20      21.2159      0.00000

 k-point     4 :       0.3750    0.0000    0.0000
  band No.  band energies     occupation 
      1     -14.0111      2.00000
      2     -13.9403      2.00000
      3      -6.3534      2.00000
      4      -6.2985      2.00000
      5      -2.5182      2.00000
      6      -2.4799      2.00000
      7      -1.0637      2.00000
      8      -0.3177      2.00000
      9       7.3216      0.00000
     10       7.8854      0.00000
     11       9.7043      0.00000
     12      11.3036      0.00000
     13      12.4040      0.00000
     14      15.0276      0.00000
     15      16.5048      0.00000
     16      18.7783      0.00000
     17      19.0251      0.00000
     18      20.8990      0.00000
     19      20.9944      0.00000
     20      21.0305      0.00000

 k-point     5 :       0.5000    0.0000    0.0000
  band No.  band energies     occupation 
      1     -13.2720      2.00000
      2     -13.2293      2.00000
      3      -7.5764      2.00000
      4      -7.5162      2.00000
      5      -2.8316      2.00000
      6      -2.7930      2.00000
      7       0.2345      2.00000
      8       0.5277      2.00000
      9       5.7902      0.00000
     10       6.4490      0.00000
     11      10.8303      0.00000
     12      10.9992      0.00000
     13      13.6879      0.00000
     14      14.3025      0.00000
     15      15.9815      0.00000
     16      17.4856      0.00000
     17      19.7087      0.00000
     18      21.5109      0.00000
     19      22.4222      0.00000
     20      22.8291      0.00000

 k-point     6 :       0.1250    0.1250    0.0000
  band No.  band energies     occupation 
      1     -15.4865      2.00000
      2     -15.3882      2.00000
      3      -3.2163      2.00000
      4      -2.8665      2.00000
      5      -2.8305      2.00000
      6      -2.2001      2.00000
      7      -1.6513      2.00000
      8      -1.6163      2.00000
      9       7.4482      0.00000
     10       9.8988      0.00000
     11      11.4152      0.00000
     12      12.9308      0.00000
     13      13.0972      0.00000
     14      13.6201      0.00000
     15      14.5872      0.00000
     16      15.1138      0.00000
     17      16.6210      0.00000
     18      18.2326      0.00000
     19      21.1056      0.00000
     20      21.5917      0.00000

 k-point     7 :       0.2500    0.1250    0.0000
  band No.  band energies     occupation 
      1     -14.4361      2.00000
      2     -14.3550      2.00000
      3      -5.1601      2.00000
      4      -5.1161      2.00000
      5      -2.8924      2.00000
      6      -2.8537      2.00000
      7      -1.7147      2.00000
      8      -0.8537      2.00000
      9       8.4264      0.00000
     10       8.9290      0.00000
     11       9.1993      0.00000
     12      12.7431      0.00000
     13      13.3734      0.00000
     14      14.5129      0.00000
     15      15.5568      0.00000
     16      17.0812      0.00000
     17      18.4798      0.00000
     18      19.4451      0.00000
     19      20.6340      0.00000
     20      21.3965      0.00000

 k-point     8 :       0.3750    0.1250    0.0000
  band No.  band energies     occupation 
      1     -13.3377      2.00000
      2     -13.2860      2.00000
      3      -7.0782      2.00000
      4      -7.0220      2.00000
      5      -3.5699      2.00000
      6      -3.5284      2.00000
      7       0.0364      2.00000
      8       0.5219      2.00000
      9       6.2810      0.00000
     10       6.8045      0.00000
     11      11.3122      0.00000
     12      12.3578      0.00000
     13      13.6123      0.00000
     14      15.1684      0.00000
     15      15.5986      0.00000
     16      16.6505      0.00000
     17      19.0301      0.00000
     18      20.5156      0.00000
     19      20.6088      0.00000
     20      21.7534      0.00000

 k-point     9 :       0.2500    0.2500    0.0000
  band No.  band energies     occupation 
      1     -13.3989      2.00000
      2     -13.3405      2.00000
      3      -6.2836      2.00000
      4      -6.2465      2.00000
      5      -4.5710      2.00000
      6      -4.5314      2.00000
      7      -0.1156      2.00000
      8       0.4832      2.00000
      9       6.9216      0.00000
     10       7.0982      0.00000
     11      11.3910      0.00000
     12      14.4068      0.00000
     13      14.6513      0.00000
     14      15.2696      0.00000
     15      15.6182      0.00000
     16      15.8119      0.00000
     17      17.0692      0.00000
     18      19.9476      0.00000
     19      20.2029      0.00000
     20      20.5894      0.00000

 k-point    10 :       0.3750    0.2500    0.0000
  band No.  band energies     occupation 
      1     -12.8120      2.00000
      2     -12.7746      2.00000
      3      -6.8763      2.00000
      4      -6.8261      2.00000
      5      -5.2589      2.00000
      6      -5.2129      2.00000
      7       0.9966      2.00000
      8       1.1789      2.00000
      9       5.9232      0.00000
     10       6.1764      0.00000
     11      13.6245      0.00000
     12      13.9829      0.00000
     13      14.1098      0.00000
     14      14.5178      0.00000
     15      15.3185      0.00000
     16      16.5927      0.00000
     17      18.8609      0.00000
     18      19.7884      0.00000
     19      20.2171      0.00000
     20      20.3107      0.00000

 k-point    11 :       0.0000    0.0000    0.2500
  band No.  band energies     occupation 
      1     -16.3496      2.00000
      2     -16.2678      2.00000
      3      -4.2878      2.00000
      4      -3.5104      2.00000
      5      -0.0611      2.00000
      6      -0.0611      2.00000
      7      -0.0264      2.00000
      8      -0.0264      2.00000
      9       6.4377      0.00000
     10       9.2088      0.00000
     11      12.8001      0.00000
     12      12.8001      0.00000
     13      12.8366      0.00000
     14      12.8366      0.00000
     15      12.9603      0.00000
     16      13.8891      0.00000
     17      15.3865      0.00000
     18      15.9582      0.00000
     19      20.4957      0.00000
     20      24.6495      0.00000

 k-point    12 :       0.1250    0.0000    0.2500
  band No.  band energies     occupation 
      1     -16.0513      2.00000
      2     -15.9724      2.00000
      3      -3.8808      2.00000
      4      -3.1232      2.00000
      5      -1.2448      2.00000
      6      -1.2093      2.00000
      7      -0.5995      2.00000
      8      -0.5644      2.00000
      9       6.9410      0.00000
     10       9.4650      0.00000
     11      12.3931      0.00000
     12      12.6314      0.00000
     13      13.0973      0.00000
     14      13.4364      0.00000
     15      14.0768      0.00000
     16      14.1139      0.00000
     17      15.7050      0.00000
     18      16.1869      0.00000
     19      20.9045      0.00000
     20      23.9122      0.00000

 k-point    13 :       0.2500    0.0000    0.2500
  band No.  band energies     occupation 
      1     -15.1993      2.00000
      2     -15.1286      2.00000
      3      -3.8040      2.00000
      4      -3.7656      2.00000
      5      -2.6969      2.00000
      6      -2.0069      2.00000
      7      -1.6620      2.00000
      8      -1.6262      2.00000
      9       8.1714      0.00000
     10       9.3900      0.00000
     11      10.7397      0.00000
     12      11.6368      0.00000
     13      12.3983      0.00000
     14      13.3343      0.00000
     15      16.6126      0.00000
     16      17.2257      0.00000
     17      17.2680      0.00000
     18      18.0206      0.00000
     19      21.0571      0.00000
     20      21.5653      0.00000

 k-point    14 :       0.3750    0.0000    0.2500
  band No.  band energies     occupation 
      1     -14.0036      2.00000
      2     -13.9481      2.00000
      3      -6.3490      2.00000
      4      -6.3039      2.00000
      5      -2.5171      2.00000
      6      -2.4809      2.00000
      7      -0.9616      2.00000
      8      -0.4344      2.00000
      9       7.3477      0.00000
     10       7.7226      0.00000
     11      10.1427      0.00000
     12      11.2391      0.00000
     13      12.5106      0.00000
     14      14.1505      0.00000
     15      17.0518      0.00000
     16      18.4614      0.00000
     17      19.3125      0.00000
     18      20.9080      0.00000
     19      20.9782      0.00000
     20      21.0162      0.00000

 k-point    15 :       0.5000    0.0000    0.2500
  band No.  band energies     occupation 
      1     -13.2701      2.00000
      2     -13.2314      2.00000
      3      -7.5708      2.00000
      4      -7.5227      2.00000
      5      -2.8304      2.00000
      6      -2.7942      2.00000
      7       0.2813      2.00000
      8       0.4911      2.00000
      9       5.8421      0.00000
     10       6.3026      0.00000
     11      10.9176      0.00000
     12      11.0332      0.00000
     13      13.9480      0.00000
     14      14.4097      0.00000
     15      15.8234      0.00000
     16      17.0229      0.00000
     17      19.6672      0.00000
     18      21.2638      0.00000
     19      22.8351      0.00000
     20      22.9229      0.00000

 k-point    16 :       0.1250    0.1250    0.2500
  band No.  band energies     occupation 
      1     -15.4743      2.00000
      2     -15.4009      2.00000
      3      -3.0970      2.00000
      4      -2.8682      2.00000
      5      -2.8231      2.00000
      6      -2.3612      2.00000
      7      -1.6510      2.00000
      8      -1.6163      2.00000
      9       7.8398      0.00000
     10       9.6106      0.00000
     11      11.5098      0.00000
     12      12.6275      0.00000
     13      13.0817      0.00000
     14      13.1136      0.00000
     15      14.8976      0.00000
     16      15.1019      0.00000
     17      17.1082      0.00000
     18      18.1279      0.00000
     19      21.3023      0.00000
     20      21.7803      0.00000

 k-point    17 :       0.2500    0.1250    0.2500
  band No.  band energies     occupation 
      1     -14.4267      2.00000
      2     -14.3646      2.00000
      3      -5.1581      2.00000
      4      -5.1194      2.00000
      5      -2.8913      2.00000
      6      -2.8553      2.00000
      7      -1.5988      2.00000
      8      -0.9915      2.00000
      9       8.4137      0.00000
     10       8.6146      0.00000
     11       9.9595      0.00000
     12      12.4393      0.00000
     13      13.3686      0.00000
     14      13.7399      0.00000
     15      16.1773      0.00000
     16      16.9966      0.00000
     17      18.5871      0.00000
     18      19.3379      0.00000
     19      20.4385      0.00000
     20      21.4440      0.00000

 k-point    18 :       0.3750    0.1250    0.2500
  band No.  band energies     occupation 
      1     -13.3338      2.00000
      2     -13.2900      2.00000
      3      -7.0733      2.00000
      4      -7.0277      2.00000
      5      -3.5681      2.00000
      6      -3.5304      2.00000
      7       0.1074      2.00000
      8       0.4520      2.00000
      9       6.3238      0.00000
     10       6.6897      0.00000
     11      11.5873      0.00000
     12      12.3190      0.00000
     13      13.6905      0.00000
     14      14.6500      0.00000
     15      15.8708      0.00000
     16      16.9221      0.00000
     17      18.5062      0.00000
     18      19.9937      0.00000
     19      21.2849      0.00000
     20      21.8310      0.00000

 k-point    19 :       0.2500    0.2500    0.2500
  band No.  band energies     occupation 
      1     -13.3937      2.00000
      2     -13.3459      2.00000
      3      -6.2827      2.00000
      4      -6.2479      2.00000
      5      -4.5697      2.00000
      6      -4.5333      2.00000
      7      -0.0312      2.00000
      8       0.3928      2.00000
      9       6.9290      0.00000
     10       7.0449      0.00000
     11      11.7611      0.00000
     12      13.6651      0.00000
     13      14.9942      0.00000
     14      15.2624      0.00000
     15      15.5019      0.00000
     16      16.1599      0.00000
     17      17.0912      0.00000
     18      18.6882      0.00000
     19      20.5389      0.00000
     20      21.7000      0.00000

 k-point    20 :       0.3750    0.2500    0.2500
  band No.  band energies     occupation 
      1     -12.8113      2.00000
      2     -12.7752      2.00000
      3      -6.8724      2.00000
      4      -6.8304      2.00000
      5      -5.2562      2.00000
      6      -5.2163      2.00000
      7       1.0268      2.00000
      8       1.1584      2.00000
      9       5.9473      0.00000
     10       6.1236      0.00000
     11      13.3340      0.00000
     12      13.6640      0.00000
     13      14.3219      0.00000
     14      15.1410      0.00000
     15      15.5636      0.00000
     16      16.6229      0.00000
     17      18.4058      0.00000
     18      19.4915      0.00000
     19      19.8584      0.00000
     20      20.9642      0.00000

 k-point    21 :       0.0000    0.0000    0.5000
  band No.  band energies     occupation 
      1     -16.3256      2.00000
      2     -16.2925      2.00000
      3      -3.9365      2.00000
      4      -3.9063      2.00000
      5      -0.0613      2.00000
      6      -0.0612      2.00000
      7      -0.0267      2.00000
      8      -0.0267      2.00000
      9       7.6690      0.00000
     10       7.6790      0.00000
     11      12.8024      0.00000
     12      12.8024      0.00000
     13      12.8336      0.00000
     14      12.8336      0.00000
     15      13.5446      0.00000
     16      13.5478      0.00000
     17      15.6008      0.00000
     18      15.6423      0.00000
     19      22.4854      0.00000
     20      22.5907      0.00000

 k-point    22 :       0.1250    0.0000    0.5000
  band No.  band energies     occupation 
      1     -16.0287      2.00000
      2     -15.9956      2.00000
      3      -3.5391      2.00000
      4      -3.5084      2.00000
      5      -1.2429      2.00000
      6      -1.2084      2.00000
      7      -0.5991      2.00000
      8      -0.5648      2.00000
      9       8.0968      0.00000
     10       8.1086      0.00000
     11      12.5138      0.00000
     12      12.5574      0.00000
     13      13.2013      0.00000
     14      13.2535      0.00000
     15      14.0796      0.00000
     16      14.1111      0.00000
     17      16.0279      0.00000
     18      16.0343      0.00000
     19      22.4395      0.00000
     20      22.6286      0.00000

 k-point    23 :       0.2500    0.0000    0.5000
  band No.  band energies     occupation 
      1     -15.1808      2.00000
      2     -15.1474      2.00000
      3      -3.8028      2.00000
      4      -3.7708      2.00000
      5      -2.3809      2.00000
      6      -2.3513      2.00000
      7      -1.6611      2.00000
      8      -1.6271      2.00000
      9       8.8635      0.00000
     10       8.8851      0.00000
     11      11.1485      0.00000
     12      11.1989      0.00000
     13      12.5476      0.00000
     14      12.5746      0.00000
     15      17.2306      0.00000
     16      17.2625      0.00000
     17      17.4956      0.00000
     18      17.6177      0.00000
     19      21.1025      0.00000
     20      21.8204      0.00000

 k-point    24 :       0.3750    0.0000    0.5000
  band No.  band energies     occupation 
      1     -13.9929      2.00000
      2     -13.9590      2.00000
      3      -6.3430      2.00000
      4      -6.3108      2.00000
      5      -2.5159      2.00000
      6      -2.4821      2.00000
      7      -0.7214      2.00000
      8      -0.6890      2.00000
      9       7.4743      0.00000
     10       7.4853      0.00000
     11      10.8769      0.00000
     12      10.8986      0.00000
     13      12.9878      0.00000
     14      13.0548      0.00000
     15      17.5146      0.00000
     16      18.1058      0.00000
     17      19.5543      0.00000
     18      20.9236      0.00000
     19      20.9555      0.00000
     20      20.9838      0.00000

 k-point    25 :       0.5000    0.0000    0.5000
  band No.  band energies     occupation 
      1     -13.2678      2.00000
      2     -13.2335      2.00000
      3      -7.5630      2.00000
      4      -7.5313      2.00000
      5      -2.8292      2.00000
      6      -2.7954      2.00000
      7       0.3740      2.00000
      8       0.4086      2.00000
      9       6.0179      0.00000
     10       6.0356      0.00000
     11      11.0295      0.00000
     12      11.0370      0.00000
     13      14.2619      0.00000
     14      14.5862      0.00000
     15      15.7186      0.00000
     16      16.3665      0.00000
     17      19.7711      0.00000
     18      21.0061      0.00000
     19      22.8479      0.00000
     20      22.8773      0.00000

 k-point    26 :       0.1250    0.1250    0.5000
  band No.  band energies     occupation 
      1     -15.4545      2.00000
      2     -15.4212      2.00000
      3      -2.9012      2.00000
      4      -2.8903      2.00000
      5      -2.7008      2.00000
      6      -2.6926      2.00000
      7      -1.6506      2.00000
      8      -1.6164      2.00000
      9       8.7605      0.00000
     10       8.7776      0.00000
     11      11.8473      0.00000
     12      11.8798      0.00000
     13      13.0700      0.00000
     14      13.0731      0.00000
     15      15.0273      0.00000
     16      15.0728      0.00000
     17      17.7321      0.00000
     18      17.8169      0.00000
     19      21.4596      0.00000
     20      22.0673      0.00000

 k-point    27 :       0.2500    0.1250    0.5000
  band No.  band energies     occupation 
      1     -14.4127      2.00000
      2     -14.3790      2.00000
      3      -5.1556      2.00000
      4      -5.1231      2.00000
      5      -2.8902      2.00000
      6      -2.8569      2.00000
      7      -1.3216      2.00000
      8      -1.2905      2.00000
      9       8.4482      0.00000
     10       8.4515      0.00000
     11      11.2303      0.00000
     12      11.2553      0.00000
     13      13.3731      0.00000
     14      13.4132      0.00000
     15      16.6146      0.00000
     16      16.8093      0.00000
     17      18.8930      0.00000
     18      18.9320      0.00000
     19      20.5194      0.00000
     20      21.4720      0.00000

 k-point    28 :       0.3750    0.1250    0.5000
  band No.  band energies     occupation 
      1     -13.3290      2.00000
      2     -13.2947      2.00000
      3      -7.0669      2.00000
      4      -7.0349      2.00000
      5      -3.5660      2.00000
      6      -3.5327      2.00000
      7       0.2633      2.00000
      8       0.2973      2.00000
      9       6.4626      0.00000
     10       6.4823      0.00000
     11      12.0784      0.00000
     12      12.0829      0.00000
     13      13.9260      0.00000
     14      14.1099      0.00000
     15      16.0888      0.00000
     16      16.9477      0.00000
     17      18.3923      0.00000
     18      19.6062      0.00000
     19      21.5373      0.00000
     20      21.7419      0.00000

 k-point    29 :       0.2500    0.2500    0.5000
  band No.  band energies     occupation 
      1     -13.3870      2.00000
      2     -13.3528      2.00000
      3      -6.2817      2.00000
      4      -6.2494      2.00000
      5      -4.5682      2.00000
      6      -4.5354      2.00000
      7       0.1610      2.00000
      8       0.1946      2.00000
      9       6.9544      0.00000
     10       6.9764      0.00000
     11      12.5900      0.00000
     12      12.7090      0.00000
     13      15.1587      0.00000
     14      15.2229      0.00000
     15      15.4661      0.00000
     16      16.4277      0.00000
     17      17.1190      0.00000
     18      17.9911      0.00000
     19      20.9340      0.00000
     20      22.0878      0.00000

 k-point    30 :       0.3750    0.2500    0.5000
  band No.  band energies     occupation 
      1     -12.8107      2.00000
      2     -12.7760      2.00000
      3      -6.8675      2.00000
      4      -6.8357      2.00000
      5      -5.2529      2.00000
      6      -5.2202      2.00000
      7       1.0794      2.00000
      8       1.1153      2.00000
      9       6.0094      0.00000
     10       6.0330      0.00000
     11      13.1064      0.00000
     12      13.5345      0.00000
     13      14.5734      0.00000
     14      15.3359      0.00000
     15      16.0849      0.00000
     16      16.6464      0.00000
     17      17.8675      0.00000
     18      19.0984      0.00000
     19      19.9902      0.00000
     20      21.0600      0.00000


--------------------------------------------------------------------------------------------------------


 soft charge-density along one line, spin component           1
         0         1         2         3         4         5         6         7         8         9
 total charge-density along one line
 
 pseudopotential strength for first ion, spin component:           1
  6.448   9.818  -0.000  -0.000  -0.000  -0.000  -0.000  -0.000
  9.818  14.944  -0.000  -0.000  -0.000  -0.000  -0.000  -0.000
 -0.000  -0.000  -2.179  -0.000  -0.000  -3.706  -0.000  -0.000
 -0.000  -0.000  -0.000  -2.176  -0.000  -0.000  -3.699  -0.000
 -0.000  -0.000  -0.000  -0.000  -2.179  -0.000  -0.000  -3.706
 -0.000  -0.000  -3.706  -0.000  -0.000  -6.105  -0.000  -0.000
 -0.000  -0.000  -0.000  -3.699  -0.000  -0.000  -6.086  -0.000
 -0.000  -0.000  -0.000  -0.000  -3.706  -0.000  -0.000  -6.105
 total augmentation occupancy for first ion, spin component:           1
  4.193  -1.221  -0.000   0.000   0.000   0.000   0.000   0.000
 -1.221   0.384  -0.000   0.000   0.000   0.000   0.000   0.000
 -0.000  -0.000   4.890   0.000   0.000  -1.470   0.000   0.000
  0.000   0.000  -0.000   1.587  -0.000   0.000  -0.387   0.000
  0.000   0.000   0.000   0.000   4.890   0.000  -0.000  -1.470
  0.000   0.000  -1.470   0.000   0.000   0.457   0.000   0.000
  0.000   0.000   0.000  -0.387   0.000  -0.000   0.095   0.000
  0.000   0.000   0.000   0.000  -1.470   0.000   0.000   0.457


------------------------ aborting loop because EDIFF is reached ----------------------------------------


 


 total charge     
 
# of ion       s       p       d       tot
------------------------------------------
    1        0.740   1.413   0.000   2.153
    2        0.740   1.413   0.000   2.153
    3        1.225   2.786   0.000   4.011
    4        1.225   2.787   0.000   4.012
--------------------------------------------------
tot          3.930   8.399   0.000  12.329
 
    CHARGE:  cpu time    0.0037: real time    0.0038
    FORLOC:  cpu time    0.0001: real time    0.0001
    FORNL :  cpu time    0.0109: real time    0.0110
    STRESS:  cpu time    0.0881: real time    0.0892
    FORCOR:  cpu time    0.0018: real time    0.0019
    FORHAR:  cpu time    0.0006: real time    0.0006
    MIXING:  cpu time    0.0001: real time    0.0001
    OFIELD:  cpu time    0.0000: real time    0.0000

  FORCE on cell =-STRESS in cart. coord.  units (eV):
  Direction    XX          YY          ZZ          XY          YZ          ZX
  --------------------------------------------------------------------------------------
  Alpha Z    34.59384    34.59384    34.59384
  Ewald     121.29472   121.29472  -664.47690    -0.00000    -0.00000    -0.00000
  Hartree   223.90436   223.90436  -166.28527    -0.00000     0.00000     0.00000
  E(xc)     -63.11411   -63.11411   -64.94609     0.00000    -0.00000     0.00000
  Local    -544.53860  -544.53786   600.40755     0.00000     0.00000    -0.00010
  n-local   -30.86628   -29.30966   -29.94010     0.13171    -0.00436     0.01391
  augment     2.17081     2.17068     2.52478    -0.00000    -0.00000    -0.00000
  Kinetic   258.43787   253.20471   288.16319     2.22572     0.04439    -0.13829
  Fock        0.00000     0.00000     0.00000     0.00000     0.00000     0.00000
  -------------------------------------------------------------------------------------
  Total       0.04463     0.04463     0.04101     0.00000    -0.00000    -0.00000
  in kB       1.73790     1.73790     1.59677     0.00000    -0.00000    -0.00000
  external pressure =        1.69 kB  Pullay stress =        0.00 kB


 VOLUME and BASIS-vectors are now :
 -----------------------------------------------------------------------------
  energy-cutoff  :      500.00
  volume of cell :       41.15
      direct lattice vectors                 reciprocal lattice vectors
     1.256237318 -2.175866861  0.000000000     0.398013968 -0.229793472  0.000000000
     1.256237318  2.175866861  0.000000000     0.398013968  0.229793472  0.000000000
     0.000000000  0.000000000  7.526459174     0.000000000  0.000000000  0.132864602

  length of vectors
     2.512474636  2.512474636  7.526459174     0.459586943  0.459586943  0.132864602


 FORCES acting on ions
    electron-ion (+dipol)            ewald-force                    non-local-force                 convergence-correction
 -----------------------------------------------------------------------------------------------
   0.142E-12 -.121E-04 0.186E-14   0.466E-14 -.651E-11 -.139E-13   0.000E+00 0.000E+00 0.000E+00   0.102E-14 0.999E-07 0.364E-13
   -.240E-13 -.159E-04 -.245E-12   0.347E-14 0.130E-10 0.139E-13   -.278E-16 0.555E-16 0.000E+00   -.140E-15 0.989E-07 -.350E-13
   0.118E-12 -.678E-06 -.814E-12   -.352E-14 0.651E-11 -.231E-13   0.347E-17 -.694E-17 0.000E+00   -.353E-14 0.171E-06 0.718E-13
   0.483E-12 -.277E-05 -.359E-11   -.271E-14 -.130E-10 0.231E-13   -.173E-16 0.486E-16 0.000E+00   0.102E-13 0.174E-06 -.709E-13
 -----------------------------------------------------------------------------------------------
   0.719E-12 -.315E-04 -.464E-11   0.191E-14 0.202E-14 0.000E+00   -.416E-16 0.971E-16 0.000E+00   0.752E-14 0.543E-06 0.229E-14
 
 
 POSITION                                       TOTAL-FORCE (eV/Angst)
 -----------------------------------------------------------------------------------
      0.00000      0.00000      0.00000        -0.000000      0.000000      0.000000
      1.25624      0.72529      3.76323         0.000000     -0.000000      0.000000
      1.25624      0.72529      0.00000         0.000000      0.000000      0.000000
      1.25624     -0.72529      3.76323         0.000000      0.000000      0.000000
 -----------------------------------------------------------------------------------
    total drift:                                0.000000     -0.000031     -0.000000


--------------------------------------------------------------------------------------------------------



  FREE ENERGIE OF THE ION-ELECTRON SYSTEM (eV)
  ---------------------------------------------------
  free  energy   TOTEN  =       -35.19427757 eV

  energy  without entropy=      -35.19427757  energy(sigma->0) =      -35.19427757
 


--------------------------------------------------------------------------------------------------------


    POTLOK:  cpu time    0.0045: real time    0.0106


--------------------------------------------------------------------------------------------------------


 writing wavefunctions
     LOOP+:  cpu time    1.5439: real time    1.5730
    4ORBIT:  cpu time    0.0000: real time    0.0000
 


 total charge     
 
# of ion       s       p       d       tot
------------------------------------------
    1        0.740   1.413   0.000   2.153
    2        0.740   1.413   0.000   2.153
    3        1.225   2.786   0.000   4.011
    4        1.225   2.787   0.000   4.012
--------------------------------------------------
tot          3.930   8.399   0.000  12.329
 

 total amount of memory used by VASP MPI-rank0    35926. kBytes
=======================================================================

   base      :      30000. kBytes
   nonl-proj :       4216. kBytes
   fftplans  :        561. kBytes
   grid      :        600. kBytes
   one-center:         12. kBytes
   wavefun   :        537. kBytes
 
  
  
 General timing and accounting informations for this job:
 ========================================================
  
                  Total CPU time used (sec):        2.074
                            User time (sec):        1.753
                          System time (sec):        0.320
                         Elapsed time (sec):        2.391
  
                   Maximum memory used (kb):       73736.
                   Average memory used (kb):           0.
  
                          Minor page faults:        10037
                          Major page faults:            2
                 Voluntary context switches:         3473
