 vasp.5.4.4.18Apr17-6-g9f103f2a35 (build May 10 2019 17:57:18) complex          
  
 executed on             LinuxIFC date 2024.07.15  20:34:22
 running on   20 total cores
 distrk:  each k-point on   20 cores,    1 groups
 distr:  one band on NCORES_PER_BAND=   1 cores,   20 groups


--------------------------------------------------------------------------------------------------------


 INCAR:
 POTCAR:    PAW_PBE B 06Sep2000                   
 POTCAR:    PAW_PBE N 08Apr2002                   

 ----------------------------------------------------------------------------- 
|                                                                             |
|           W    W    AA    RRRRR   N    N  II  N    N   GGGG   !!!           |
|           W    W   A  A   R    R  NN   N  II  NN   N  G    G  !!!           |
|           W    W  A    A  R    R  N N  N  II  N N  N  G       !!!           |
|           W WW W  AAAAAA  RRRRR   N  N N  II  N  N N  G  GGG   !            |
|           WW  WW  A    A  R   R   N   NN  II  N   NN  G    G                |
|           W    W  A    A  R    R  N    N  II  N    N   GGGG   !!!           |
|                                                                             |
|      For optimal performance we recommend to set                            |
|        NCORE= 4 - approx SQRT( number of cores)                             |
|      NCORE specifies how many cores store one orbital (NPAR=cpu/NCORE).     |
|      This setting can  greatly improve the performance of VASP for DFT.     |
|      The default,   NCORE=1            might be grossly inefficient         |
|      on modern multi-core architectures or massively parallel machines.     |
|      Do your own testing !!!!                                               |
|      Unfortunately you need to use the default for GW and RPA calculations. |
|      (for HF NCORE is supported but not extensively tested yet)             |
|                                                                             |
 ----------------------------------------------------------------------------- 

 POTCAR:    PAW_PBE B 06Sep2000                   
   SHA256 =  a32ced30f5ae56fd4d10b4325ff17eb3e4e38ee0f4288bc219fb012fddfa6e97 B/
   COPYR  = (c) Copyright 06Sep2000 Georg Kresse                                
   COPYR  = This file is part of the software VASP. Any use, copying, and all ot
   COPYR  = If you do not have a valid VASP license, you may not use, copy or di
   VRHFIN =B: s2p1                                                              
   LEXCH  = PE                                                                  
   EATOM  =    71.1703 eV,    5.2309 Ry                                         
                                                                                
   TITEL  = PAW_PBE B 06Sep2000                                                 
   LULTRA =        F    use ultrasoft PP ?                                      
   IUNSCR =        1    unscreen: 0-lin 1-nonlin 2-no                           
   RPACOR =    1.200    partial core radius                                     
   POMASS =   10.811; ZVAL   =    3.000    mass and valenz                      
   RCORE  =    1.700    outmost cutoff radius                                   
   RWIGS  =    1.710; RWIGS  =    0.905    wigner-seitz radius (au A)           
   ENMAX  =  318.614; ENMIN  =  238.960 eV                                      
   ICORE  =        2    local potential                                         
   LCOR   =        T    correct aug charges                                     
   LPAW   =        T    paw PP                                                  
   EAUG   =  535.514                                                            
   DEXC   =    0.000                                                            
   RMAX   =    1.732    core radius for proj-oper                               
   RAUG   =    1.300    factor for augmentation sphere                          
   RDEP   =    1.757    radius for radial grids                                 
   RDEPT  =    1.436    core radius for aug-charge                              
                                                                                
   Atomic configuration                                                         
    4 entries                                                                   
     n  l   j            E        occ.                                          
     1  0  0.50      -180.5896   2.0000                                         
     2  0  0.50        -9.4431   2.0000                                         
     2  1  0.50        -3.6068   1.0000                                         
     3  2  1.50        -4.0817   0.0000                                         
   Description                                                                  
     l       E           TYP  RCUT    TYP  RCUT                                 
     0     -9.4430752     23  1.500                                             
     0      0.8675899     23  1.500                                             
     1     -3.6067955     23  1.700                                             
     1      6.1086146     23  1.700                                             
     2     -4.0817478      7  1.700                                             
  local pseudopotential read in
  partial core-charges read in
  partial kinetic energy density read in
  atomic valenz-charges read in
  non local Contribution for L=           0  read in
    real space projection operators read in
  non local Contribution for L=           0  read in
    real space projection operators read in
  non local Contribution for L=           1  read in
    real space projection operators read in
  non local Contribution for L=           1  read in
    real space projection operators read in
    PAW grid and wavefunctions read in
 
   number of l-projection  operators is LMAX  =           4
   number of lm-projection operators is LMMAX =           8
 
 POTCAR:    PAW_PBE N 08Apr2002                   
   SHA256 =  e053789ff3a61a86a1b75d8a110fcc91f86041011e7b0817c7c99e4e8a6349d7 N/
   COPYR  = (c) Copyright 08Apr2002 Georg Kresse                                
   COPYR  = This file is part of the software VASP. Any use, copying, and all ot
   COPYR  = If you do not have a valid VASP license, you may not use, copy or di
   VRHFIN =N: s2p3                                                              
   LEXCH  = PE                                                                  
   EATOM  =   264.5486 eV,   19.4438 Ry                                         
                                                                                
   TITEL  = PAW_PBE N 08Apr2002                                                 
   LULTRA =        F    use ultrasoft PP ?                                      
   IUNSCR =        1    unscreen: 0-lin 1-nonlin 2-no                           
   RPACOR =    1.200    partial core radius                                     
   POMASS =   14.001; ZVAL   =    5.000    mass and valenz                      
   RCORE  =    1.500    outmost cutoff radius                                   
   RWIGS  =    1.400; RWIGS  =    0.741    wigner-seitz radius (au A)           
   ENMAX  =  400.000; ENMIN  =  300.000 eV                                      
   ICORE  =        2    local potential                                         
   LCOR   =        T    correct aug charges                                     
   LPAW   =        T    paw PP                                                  
   EAUG   =  627.112                                                            
   DEXC   =    0.000                                                            
   RMAX   =    1.529    core radius for proj-oper                               
   RAUG   =    1.300    factor for augmentation sphere                          
   RDEP   =    1.514    radius for radial grids                                 
   RDEPT  =    1.338    core radius for aug-charge                              
                                                                                
   Atomic configuration                                                         
    4 entries                                                                   
     n  l   j            E        occ.                                          
     1  0  0.50      -384.7179   2.0000                                         
     2  0  0.50       -18.5828   2.0000                                         
     2  1  0.50        -7.0898   3.0000                                         
     3  2  1.50        -6.8029   0.0000                                         
   Description                                                                  
     l       E           TYP  RCUT    TYP  RCUT                                 
     0    -18.5828119     23  1.200                                             
     0    -13.5018863     23  1.200                                             
     1     -7.0897853     23  1.500                                             
     1      9.5240782     23  1.500                                             
     2     -6.8029130      7  1.500                                             
  local pseudopotential read in
  partial core-charges read in
  partial kinetic energy density read in
  atomic valenz-charges read in
  non local Contribution for L=           0  read in
    real space projection operators read in
  non local Contribution for L=           0  read in
    real space projection operators read in
  non local Contribution for L=           1  read in
    real space projection operators read in
  non local Contribution for L=           1  read in
    real space projection operators read in
    PAW grid and wavefunctions read in
 
   number of l-projection  operators is LMAX  =           4
   number of lm-projection operators is LMMAX =           8
 
  PAW_PBE B 06Sep2000                   :
 energy of atom  1       EATOM=  -71.1703
 kinetic energy error for atom=    0.0012 (will be added to EATOM!!)
  PAW_PBE N 08Apr2002                   :
 energy of atom  2       EATOM= -264.5486
 kinetic energy error for atom=    0.0138 (will be added to EATOM!!)
 
 
 POSCAR: B2 N2                                   
  positions in direct lattice
  velocities in cartesian coordinates
 exchange correlation table for  LEXCH =        8
   RHO(1)=    0.500       N(1)  =     2000
   RHO(2)=  100.500       N(2)  =     4000
 


--------------------------------------------------------------------------------------------------------


 ion  position               nearest neighbor table
   1  0.000  0.000  0.000-   3 1.45   3 1.45   3 1.45
   2  0.333  0.667  0.500-   4 1.45   4 1.45   4 1.45
   3  0.333  0.667  0.000-   1 1.45   1 1.45   1 1.45
   4  0.667  0.333  0.500-   2 1.45   2 1.45   2 1.45
 
  LATTYP: Found a hexagonal cell.
 ALAT       =     2.5124746362
 C/A-ratio  =     2.9956358826
  
  Lattice vectors:
  
 A1 = (   1.2562373181,  -2.1758668613,   0.0000000000)
 A2 = (   1.2562373181,   2.1758668613,   0.0000000000)
 A3 = (   0.0000000000,   0.0000000000,   7.5264591742)


Analysis of symmetry for initial positions (statically):
=====================================================================
 Subroutine PRICEL returns:
 Original cell was already a primitive cell.
 

 Routine SETGRP: Setting up the symmetry group for a 
 hexagonal supercell.


 Subroutine GETGRP returns: Found 12 space group operations
 (whereof 12 operations were pure point group operations)
 out of a pool of 24 trial point group operations.


The static configuration has the point symmetry D_3h.


Analysis of symmetry for dynamics (positions and initial velocities):
=====================================================================
 Subroutine PRICEL returns:
 Original cell was already a primitive cell.
 

 Routine SETGRP: Setting up the symmetry group for a 
 hexagonal supercell.


 Subroutine GETGRP returns: Found 12 space group operations
 (whereof 12 operations were pure point group operations)
 out of a pool of 24 trial point group operations.


The dynamic configuration has the point symmetry D_3h.


 Subroutine INISYM returns: Found 12 space group operations
 (whereof 12 operations are pure point group operations),
 and found     1 'primitive' translations

 
 
 KPOINTS: A                                       

Automatic generation of k-mesh.
Space group operators:
 irot       det(A)        alpha          n_x          n_y          n_z        tau_x        tau_y        tau_z
    1     1.000000     0.000000     1.000000     0.000000     0.000000     0.000000     0.000000     0.000000
    2    -1.000000    60.000000     0.000000     0.000000    -1.000000     0.000000     0.000000     0.000000
    3     1.000000   120.000000     0.000000     0.000000    -1.000000     0.000000     0.000000     0.000000
    4    -1.000000   180.000000     0.000000     0.000000     1.000000     0.000000     0.000000     0.000000
    5     1.000000   120.000000     0.000000     0.000000     1.000000     0.000000     0.000000     0.000000
    6    -1.000000    60.000000     0.000000     0.000000     1.000000     0.000000     0.000000     0.000000
    7    -1.000000   180.000000     0.500000    -0.866025     0.000000     0.000000     0.000000     0.000000
    8     1.000000   180.000000     0.000000     1.000000     0.000000     0.000000     0.000000     0.000000
    9    -1.000000   180.000000    -0.500000    -0.866025     0.000000     0.000000     0.000000     0.000000
   10     1.000000   180.000000     0.866025     0.500000     0.000000     0.000000     0.000000     0.000000
   11    -1.000000   180.000000     1.000000     0.000000     0.000000     0.000000     0.000000     0.000000
   12     1.000000   180.000000     0.866025    -0.500000     0.000000     0.000000     0.000000     0.000000
 
 Subroutine IBZKPT returns following result:
 ===========================================
 
 Found     50 irreducible k-points:
 
 Following reciprocal coordinates:
            Coordinates               Weight
  0.000000  0.000000  0.000000      1.000000
  0.125000  0.000000  0.000000      6.000000
  0.250000  0.000000  0.000000      6.000000
  0.375000  0.000000  0.000000      6.000000
  0.500000  0.000000  0.000000      3.000000
  0.125000  0.125000  0.000000      6.000000
  0.250000  0.125000  0.000000     12.000000
  0.375000  0.125000  0.000000     12.000000
  0.250000  0.250000  0.000000      6.000000
  0.375000  0.250000  0.000000      6.000000
  0.000000  0.000000  0.125000      2.000000
  0.125000  0.000000  0.125000     12.000000
  0.250000  0.000000  0.125000     12.000000
  0.375000  0.000000  0.125000     12.000000
  0.500000  0.000000  0.125000      6.000000
  0.125000  0.125000  0.125000     12.000000
  0.250000  0.125000  0.125000     24.000000
  0.375000  0.125000  0.125000     24.000000
  0.250000  0.250000  0.125000     12.000000
  0.375000  0.250000  0.125000     12.000000
  0.000000  0.000000  0.250000      2.000000
  0.125000  0.000000  0.250000     12.000000
  0.250000  0.000000  0.250000     12.000000
  0.375000  0.000000  0.250000     12.000000
  0.500000  0.000000  0.250000      6.000000
  0.125000  0.125000  0.250000     12.000000
  0.250000  0.125000  0.250000     24.000000
  0.375000  0.125000  0.250000     24.000000
  0.250000  0.250000  0.250000     12.000000
  0.375000  0.250000  0.250000     12.000000
  0.000000  0.000000  0.375000      2.000000
  0.125000  0.000000  0.375000     12.000000
  0.250000  0.000000  0.375000     12.000000
  0.375000  0.000000  0.375000     12.000000
  0.500000  0.000000  0.375000      6.000000
  0.125000  0.125000  0.375000     12.000000
  0.250000  0.125000  0.375000     24.000000
  0.375000  0.125000  0.375000     24.000000
  0.250000  0.250000  0.375000     12.000000
  0.375000  0.250000  0.375000     12.000000
  0.000000  0.000000  0.500000      1.000000
  0.125000  0.000000  0.500000      6.000000
  0.250000  0.000000  0.500000      6.000000
  0.375000  0.000000  0.500000      6.000000
  0.500000  0.000000  0.500000      3.000000
  0.125000  0.125000  0.500000      6.000000
  0.250000  0.125000  0.500000     12.000000
  0.375000  0.125000  0.500000     12.000000
  0.250000  0.250000  0.500000      6.000000
  0.375000  0.250000  0.500000      6.000000
 
 Following cartesian coordinates:
            Coordinates               Weight
  0.000000  0.000000  0.000000      1.000000
  0.049752 -0.028724  0.000000      6.000000
  0.099503 -0.057448  0.000000      6.000000
  0.149255 -0.086173  0.000000      6.000000
  0.199007 -0.114897  0.000000      3.000000
  0.099503  0.000000  0.000000      6.000000
  0.149255 -0.028724  0.000000     12.000000
  0.199007 -0.057448  0.000000     12.000000
  0.199007  0.000000  0.000000      6.000000
  0.248759 -0.028724  0.000000      6.000000
  0.000000  0.000000  0.016608      2.000000
  0.049752 -0.028724  0.016608     12.000000
  0.099503 -0.057448  0.016608     12.000000
  0.149255 -0.086173  0.016608     12.000000
  0.199007 -0.114897  0.016608      6.000000
  0.099503  0.000000  0.016608     12.000000
  0.149255 -0.028724  0.016608     24.000000
  0.199007 -0.057448  0.016608     24.000000
  0.199007  0.000000  0.016608     12.000000
  0.248759 -0.028724  0.016608     12.000000
  0.000000  0.000000  0.033216      2.000000
  0.049752 -0.028724  0.033216     12.000000
  0.099503 -0.057448  0.033216     12.000000
  0.149255 -0.086173  0.033216     12.000000
  0.199007 -0.114897  0.033216      6.000000
  0.099503  0.000000  0.033216     12.000000
  0.149255 -0.028724  0.033216     24.000000
  0.199007 -0.057448  0.033216     24.000000
  0.199007  0.000000  0.033216     12.000000
  0.248759 -0.028724  0.033216     12.000000
  0.000000  0.000000  0.049824      2.000000
  0.049752 -0.028724  0.049824     12.000000
  0.099503 -0.057448  0.049824     12.000000
  0.149255 -0.086173  0.049824     12.000000
  0.199007 -0.114897  0.049824      6.000000
  0.099503  0.000000  0.049824     12.000000
  0.149255 -0.028724  0.049824     24.000000
  0.199007 -0.057448  0.049824     24.000000
  0.199007  0.000000  0.049824     12.000000
  0.248759 -0.028724  0.049824     12.000000
  0.000000  0.000000  0.066432      1.000000
  0.049752 -0.028724  0.066432      6.000000
  0.099503 -0.057448  0.066432      6.000000
  0.149255 -0.086173  0.066432      6.000000
  0.199007 -0.114897  0.066432      3.000000
  0.099503  0.000000  0.066432      6.000000
  0.149255 -0.028724  0.066432     12.000000
  0.199007 -0.057448  0.066432     12.000000
  0.199007  0.000000  0.066432      6.000000
  0.248759 -0.028724  0.066432      6.000000
 


--------------------------------------------------------------------------------------------------------




 Dimension of arrays:
   k-points           NKPTS =     50   k-points in BZ     NKDIM =     50   number of bands    NBANDS=     20
   number of dos      NEDOS =    301   number of ions     NIONS =      4
   non local maximal  LDIM  =      4   non local SUM 2l+1 LMDIM =      8
   total plane-waves  NPLWV =   8232
   max r-space proj   IRMAX =      1   max aug-charges    IRDMAX=  25156
   dimension x,y,z NGX =    14 NGY =   14 NGZ =   42
   dimension x,y,z NGXF=    28 NGYF=   28 NGZF=   84
   support grid    NGXF=    56 NGYF=   56 NGZF=  168
   ions per type =               2   2
   NGX,Y,Z   is equivalent  to a cutoff of   9.26,  9.26,  9.28 a.u.
   NGXF,Y,Z  is equivalent  to a cutoff of  18.53, 18.53, 18.55 a.u.

 SYSTEM =  BN                                      
 POSCAR =  B2 N2                                   

 Startparameter for this run:
   NWRITE =      2    write-flag & timer
   PREC   = normal    normal or accurate (medium, high low for compatibility)
   ISTART =      1    job   : 0-new  1-cont  2-samecut
   ICHARG =      0    charge: 1-file 2-atom 10-const
   ISPIN  =      1    spin polarized calculation?
   LNONCOLLINEAR =      F non collinear calculations
   LSORBIT =      F    spin-orbit coupling
   INIWAV =      1    electr: 0-lowe 1-rand  2-diag
   LASPH  =      F    aspherical Exc in radial PAW
   METAGGA=      F    non-selfconsistent MetaGGA calc.

 Electronic Relaxation 1
   ENCUT  =  500.0 eV  36.75 Ry    6.06 a.u.   4.58  4.58 13.72*2*pi/ulx,y,z
   ENINI  =  500.0     initial cutoff
   ENAUG  =  627.1 eV  augmentation charge cutoff
   NELM   =     60;   NELMIN=  2; NELMDL=  0     # of ELM steps 
   EDIFF  = 0.1E-03   stopping-criterion for ELM
   LREAL  =      F    real-space projection
   NLSPLINE    = F    spline interpolate recip. space projectors
   LCOMPAT=      F    compatible to vasp.4.4
   GGA_COMPAT  = T    GGA compatible to vasp.4.4-vasp.4.6
   LMAXPAW     = -100 max onsite density
   LMAXMIX     =    2 max onsite mixed and CHGCAR
   VOSKOWN=      0    Vosko Wilk Nusair interpolation
   ROPT   =    0.00000   0.00000
 Ionic relaxation
   EDIFFG = 0.1E-02   stopping-criterion for IOM
   NSW    =      0    number of steps for IOM
   NBLOCK =      1;   KBLOCK =      1    inner block; outer block 
   IBRION =     -1    ionic relax: 0-MD 1-quasi-New 2-CG
   NFREE  =      0    steps in history (QN), initial steepest desc. (CG)
   ISIF   =      2    stress and relaxation
   IWAVPR =     10    prediction:  0-non 1-charg 2-wave 3-comb
   ISYM   =      2    0-nonsym 1-usesym 2-fastsym
   LCORR  =      T    Harris-Foulkes like correction to forces

   POTIM  = 0.5000    time-step for ionic-motion
   TEIN   =    0.0    initial temperature
   TEBEG  =    0.0;   TEEND  =   0.0 temperature during run
   SMASS  =  -3.00    Nose mass-parameter (am)
   estimated Nose-frequenzy (Omega)   =  0.10E-29 period in steps =****** mass=  -0.144E-27a.u.
   SCALEE = 1.0000    scale energy and forces
   NPACO  =    256;   APACO  = 16.0  distance and # of slots for P.C.
   PSTRESS=    0.0 pullay stress

  Mass of Ions in am
   POMASS =  10.81 14.00
  Ionic Valenz
   ZVAL   =   3.00  5.00
  Atomic Wigner-Seitz radii
   RWIGS  =  -1.00 -1.00
  virtual crystal weights 
   VCA    =   1.00  1.00
   NELECT =      16.0000    total number of electrons
   NUPDOWN=      -1.0000    fix difference up-down

 DOS related values:
   EMIN   =  10.00;   EMAX   =-10.00  energy-range for DOS
   EFERMI =   0.00
   ISMEAR =     0;   SIGMA  =   0.05  broadening in eV -4-tet -1-fermi 0-gaus

 Electronic relaxation 2 (details)
   IALGO  =     38    algorithm
   LDIAG  =      T    sub-space diagonalisation (order eigenvalues)
   LSUBROT=      F    optimize rotation matrix (better conditioning)
   TURBO    =      0    0=normal 1=particle mesh
   IRESTART =      0    0=no restart 2=restart with 2 vectors
   NREBOOT  =      0    no. of reboots
   NMIN     =      0    reboot dimension
   EREF     =   0.00    reference energy to select bands
   IMIX   =      4    mixing-type and parameters
     AMIX     =   0.40;   BMIX     =  1.00
     AMIX_MAG =   1.60;   BMIX_MAG =  1.00
     AMIN     =   0.10
     WC   =   100.;   INIMIX=   1;  MIXPRE=   1;  MAXMIX= -45

 Intra band minimization:
   WEIMIN = 0.0000     energy-eigenvalue tresh-hold
   EBREAK =  0.13E-05  absolut break condition
   DEPER  =   0.30     relativ break condition  

   TIME   =   0.40     timestep for ELM

  volume/ion in A,a.u.               =      10.29        69.42
  Fermi-wavevector in a.u.,A,eV,Ry     =   1.194923  2.258077 19.426956  1.427841
  Thomas-Fermi vector in A             =   2.330901
 
 Write flags
   LWAVE        =      T    write WAVECAR
   LDOWNSAMPLE  =      F    k-point downsampling of WAVECAR
   LCHARG       =      T    write CHGCAR
   LVTOT        =      F    write LOCPOT, total local potential
   LVHAR        =      F    write LOCPOT, Hartree potential only
   LELF         =      F    write electronic localiz. function (ELF)
   LORBIT       =     11    0 simple, 1 ext, 2 COOP (PROOUT), +10 PAW based schemes


 Dipole corrections
   LMONO  =      F    monopole corrections only (constant potential shift)
   LDIPOL =      F    correct potential (dipole corrections)
   IDIPOL =      0    1-x, 2-y, 3-z, 4-all directions 
   EPSILON=  1.0000000 bulk dielectric constant

 Exchange correlation treatment:
   GGA     =    --    GGA type
   LEXCH   =     8    internal setting for exchange type
   VOSKOWN=      0    Vosko Wilk Nusair interpolation
   LHFCALC =     F    Hartree Fock is set to
   LHFONE  =     F    Hartree Fock one center treatment
   AEXX    =    0.0000 exact exchange contribution

 Linear response parameters
   LEPSILON=     F    determine dielectric tensor
   LRPA    =     F    only Hartree local field effects (RPA)
   LNABLA  =     F    use nabla operator in PAW spheres
   LVEL    =     F    velocity operator in full k-point grid
   LINTERFAST=   F  fast interpolation
   KINTER  =     0    interpolate to denser k-point grid
   CSHIFT  =0.1000    complex shift for real part using Kramers Kronig
   OMEGAMAX=  -1.0    maximum frequency
   DEG_THRESHOLD= 0.2000000E-02 threshold for treating states as degnerate
   RTIME   =   -0.100 relaxation time in fs
  (WPLASMAI=    0.000 imaginary part of plasma frequency in eV, 0.658/RTIME)
   DFIELD  = 0.0000000 0.0000000 0.0000000 field for delta impulse in time
 
 Orbital magnetization related:
   ORBITALMAG=     F  switch on orbital magnetization
   LCHIMAG   =     F  perturbation theory with respect to B field
   DQ        =  0.001000  dq finite difference perturbation B field
   LLRAUG    =     F  two centre corrections for induced B field



--------------------------------------------------------------------------------------------------------


 Static calculation
 charge density and potential will be updated during run
 non-spin polarized calculation
 Variant of blocked Davidson
 Davidson routine will perform the subspace rotation
 perform sub-space diagonalisation
    after iterative eigenvector-optimisation
 modified Broyden-mixing scheme, WC =      100.0
 initial mixing is a Kerker type mixing with AMIX =  0.4000 and BMIX =      1.0000
 Hartree-type preconditioning will be used
 using additional bands           12
 reciprocal scheme for non local part
 use partial core corrections
 calculate Harris-corrections to forces 
   (improved forces if not selfconsistent)
 use gradient corrections 
 use of overlap-Matrix (Vanderbilt PP)
 Gauss-broadening in eV      SIGMA  =   0.05


--------------------------------------------------------------------------------------------------------


  energy-cutoff  :      500.00
  volume of cell :       41.15
      direct lattice vectors                 reciprocal lattice vectors
     1.256237318 -2.175866861  0.000000000     0.398013968 -0.229793472  0.000000000
     1.256237318  2.175866861  0.000000000     0.398013968  0.229793472  0.000000000
     0.000000000  0.000000000  7.526459174     0.000000000  0.000000000  0.132864602

  length of vectors
     2.512474636  2.512474636  7.526459174     0.459586943  0.459586943  0.132864602


 
 old parameters found on file WAVECAR:
  energy-cutoff  :      500.00
  volume of cell :       41.15
      direct lattice vectors                 reciprocal lattice vectors
     1.256237318 -2.175866861  0.000000000     0.398013968 -0.229793472  0.000000000
     1.256237318  2.175866861  0.000000000     0.398013968  0.229793472  0.000000000
     0.000000000  0.000000000  7.526459174     0.000000000  0.000000000  0.132864602

  length of vectors

 
 k-points in units of 2pi/SCALE and weight: A                                       
   0.00000000  0.00000000  0.00000000       0.002
   0.04975175 -0.02872418  0.00000000       0.012
   0.09950349 -0.05744837  0.00000000       0.012
   0.14925524 -0.08617255  0.00000000       0.012
   0.19900698 -0.11489674  0.00000000       0.006
   0.09950349  0.00000000  0.00000000       0.012
   0.14925524 -0.02872418  0.00000000       0.023
   0.19900698 -0.05744837  0.00000000       0.023
   0.19900698  0.00000000  0.00000000       0.012
   0.24875873 -0.02872418  0.00000000       0.012
   0.00000000  0.00000000  0.01660808       0.004
   0.04975175 -0.02872418  0.01660808       0.023
   0.09950349 -0.05744837  0.01660808       0.023
   0.14925524 -0.08617255  0.01660808       0.023
   0.19900698 -0.11489674  0.01660808       0.012
   0.09950349  0.00000000  0.01660808       0.023
   0.14925524 -0.02872418  0.01660808       0.047
   0.19900698 -0.05744837  0.01660808       0.047
   0.19900698  0.00000000  0.01660808       0.023
   0.24875873 -0.02872418  0.01660808       0.023
   0.00000000  0.00000000  0.03321615       0.004
   0.04975175 -0.02872418  0.03321615       0.023
   0.09950349 -0.05744837  0.03321615       0.023
   0.14925524 -0.08617255  0.03321615       0.023
   0.19900698 -0.11489674  0.03321615       0.012
   0.09950349  0.00000000  0.03321615       0.023
   0.14925524 -0.02872418  0.03321615       0.047
   0.19900698 -0.05744837  0.03321615       0.047
   0.19900698  0.00000000  0.03321615       0.023
   0.24875873 -0.02872418  0.03321615       0.023
   0.00000000  0.00000000  0.04982423       0.004
   0.04975175 -0.02872418  0.04982423       0.023
   0.09950349 -0.05744837  0.04982423       0.023
   0.14925524 -0.08617255  0.04982423       0.023
   0.19900698 -0.11489674  0.04982423       0.012
   0.09950349  0.00000000  0.04982423       0.023
   0.14925524 -0.02872418  0.04982423       0.047
   0.19900698 -0.05744837  0.04982423       0.047
   0.19900698  0.00000000  0.04982423       0.023
   0.24875873 -0.02872418  0.04982423       0.023
   0.00000000  0.00000000  0.06643230       0.002
   0.04975175 -0.02872418  0.06643230       0.012
   0.09950349 -0.05744837  0.06643230       0.012
   0.14925524 -0.08617255  0.06643230       0.012
   0.19900698 -0.11489674  0.06643230       0.006
   0.09950349  0.00000000  0.06643230       0.012
   0.14925524 -0.02872418  0.06643230       0.023
   0.19900698 -0.05744837  0.06643230       0.023
   0.19900698  0.00000000  0.06643230       0.012
   0.24875873 -0.02872418  0.06643230       0.012
 
 k-points in reciprocal lattice and weights: A                                       
   0.00000000  0.00000000  0.00000000       0.002
   0.12500000  0.00000000  0.00000000       0.012
   0.25000000  0.00000000  0.00000000       0.012
   0.37500000  0.00000000  0.00000000       0.012
   0.50000000  0.00000000  0.00000000       0.006
   0.12500000  0.12500000  0.00000000       0.012
   0.25000000  0.12500000  0.00000000       0.023
   0.37500000  0.12500000  0.00000000       0.023
   0.25000000  0.25000000  0.00000000       0.012
   0.37500000  0.25000000  0.00000000       0.012
   0.00000000  0.00000000  0.12500000       0.004
   0.12500000  0.00000000  0.12500000       0.023
   0.25000000  0.00000000  0.12500000       0.023
   0.37500000  0.00000000  0.12500000       0.023
   0.50000000  0.00000000  0.12500000       0.012
   0.12500000  0.12500000  0.12500000       0.023
   0.25000000  0.12500000  0.12500000       0.047
   0.37500000  0.12500000  0.12500000       0.047
   0.25000000  0.25000000  0.12500000       0.023
   0.37500000  0.25000000  0.12500000       0.023
   0.00000000  0.00000000  0.25000000       0.004
   0.12500000  0.00000000  0.25000000       0.023
   0.25000000  0.00000000  0.25000000       0.023
   0.37500000  0.00000000  0.25000000       0.023
   0.50000000  0.00000000  0.25000000       0.012
   0.12500000  0.12500000  0.25000000       0.023
   0.25000000  0.12500000  0.25000000       0.047
   0.37500000  0.12500000  0.25000000       0.047
   0.25000000  0.25000000  0.25000000       0.023
   0.37500000  0.25000000  0.25000000       0.023
   0.00000000  0.00000000  0.37500000       0.004
   0.12500000  0.00000000  0.37500000       0.023
   0.25000000  0.00000000  0.37500000       0.023
   0.37500000  0.00000000  0.37500000       0.023
   0.50000000  0.00000000  0.37500000       0.012
   0.12500000  0.12500000  0.37500000       0.023
   0.25000000  0.12500000  0.37500000       0.047
   0.37500000  0.12500000  0.37500000       0.047
   0.25000000  0.25000000  0.37500000       0.023
   0.37500000  0.25000000  0.37500000       0.023
   0.00000000  0.00000000  0.50000000       0.002
   0.12500000  0.00000000  0.50000000       0.012
   0.25000000  0.00000000  0.50000000       0.012
   0.37500000  0.00000000  0.50000000       0.012
   0.50000000  0.00000000  0.50000000       0.006
   0.12500000  0.12500000  0.50000000       0.012
   0.25000000  0.12500000  0.50000000       0.023
   0.37500000  0.12500000  0.50000000       0.023
   0.25000000  0.25000000  0.50000000       0.012
   0.37500000  0.25000000  0.50000000       0.012
 
 position of ions in fractional coordinates (direct lattice) 
   0.00000000  0.00000000  0.00000000
   0.33333333  0.66666667  0.50000000
   0.33333333  0.66666667  0.00000000
   0.66666667  0.33333333  0.50000000
 
 position of ions in cartesian coordinates  (Angst):
   0.00000000  0.00000000  0.00000000
   1.25623732  0.72528895  3.76322959
   1.25623732  0.72528895  0.00000000
   1.25623732 -0.72528895  3.76322959
 


--------------------------------------------------------------------------------------------------------


 k-point  1 :   0.0000 0.0000 0.0000  plane waves:    1041
 k-point  2 :   0.1250 0.0000 0.0000  plane waves:    1056
 k-point  3 :   0.2500 0.0000 0.0000  plane waves:    1062
 k-point  4 :   0.3750 0.0000 0.0000  plane waves:    1040
 k-point  5 :   0.5000 0.0000 0.0000  plane waves:    1032
 k-point  6 :   0.1250 0.1250 0.0000  plane waves:    1053
 k-point  7 :   0.2500 0.1250 0.0000  plane waves:    1050
 k-point  8 :   0.3750 0.1250 0.0000  plane waves:    1041
 k-point  9 :   0.2500 0.2500 0.0000  plane waves:    1025
 k-point 10 :   0.3750 0.2500 0.0000  plane waves:    1024
 k-point 11 :   0.0000 0.0000 0.1250  plane waves:    1047
 k-point 12 :   0.1250 0.0000 0.1250  plane waves:    1062
 k-point 13 :   0.2500 0.0000 0.1250  plane waves:    1058
 k-point 14 :   0.3750 0.0000 0.1250  plane waves:    1045
 k-point 15 :   0.5000 0.0000 0.1250  plane waves:    1036
 k-point 16 :   0.1250 0.1250 0.1250  plane waves:    1054
 k-point 17 :   0.2500 0.1250 0.1250  plane waves:    1046
 k-point 18 :   0.3750 0.1250 0.1250  plane waves:    1039
 k-point 19 :   0.2500 0.2500 0.1250  plane waves:    1038
 k-point 20 :   0.3750 0.2500 0.1250  plane waves:    1023
 k-point 21 :   0.0000 0.0000 0.2500  plane waves:    1041
 k-point 22 :   0.1250 0.0000 0.2500  plane waves:    1055
 k-point 23 :   0.2500 0.0000 0.2500  plane waves:    1061
 k-point 24 :   0.3750 0.0000 0.2500  plane waves:    1041
 k-point 25 :   0.5000 0.0000 0.2500  plane waves:    1032
 k-point 26 :   0.1250 0.1250 0.2500  plane waves:    1058
 k-point 27 :   0.2500 0.1250 0.2500  plane waves:    1045
 k-point 28 :   0.3750 0.1250 0.2500  plane waves:    1043
 k-point 29 :   0.2500 0.2500 0.2500  plane waves:    1039
 k-point 30 :   0.3750 0.2500 0.2500  plane waves:    1028
 k-point 31 :   0.0000 0.0000 0.3750  plane waves:    1048
 k-point 32 :   0.1250 0.0000 0.3750  plane waves:    1056
 k-point 33 :   0.2500 0.0000 0.3750  plane waves:    1054
 k-point 34 :   0.3750 0.0000 0.3750  plane waves:    1035
 k-point 35 :   0.5000 0.0000 0.3750  plane waves:    1038
 k-point 36 :   0.1250 0.1250 0.3750  plane waves:    1058
 k-point 37 :   0.2500 0.1250 0.3750  plane waves:    1053
 k-point 38 :   0.3750 0.1250 0.3750  plane waves:    1036
 k-point 39 :   0.2500 0.2500 0.3750  plane waves:    1040
 k-point 40 :   0.3750 0.2500 0.3750  plane waves:    1037
 k-point 41 :   0.0000 0.0000 0.5000  plane waves:    1048
 k-point 42 :   0.1250 0.0000 0.5000  plane waves:    1060
 k-point 43 :   0.2500 0.0000 0.5000  plane waves:    1050
 k-point 44 :   0.3750 0.0000 0.5000  plane waves:    1040
 k-point 45 :   0.5000 0.0000 0.5000  plane waves:    1020
 k-point 46 :   0.1250 0.1250 0.5000  plane waves:    1056
 k-point 47 :   0.2500 0.1250 0.5000  plane waves:    1048
 k-point 48 :   0.3750 0.1250 0.5000  plane waves:    1032
 k-point 49 :   0.2500 0.2500 0.5000  plane waves:    1048
 k-point 50 :   0.3750 0.2500 0.5000  plane waves:    1044

 maximum and minimum number of plane-waves per node :      1062     1020

 maximum number of plane-waves:      1062
 maximum index in each direction: 
   IXMAX=    4   IYMAX=    4   IZMAX=   13
   IXMIN=   -5   IYMIN=   -4   IZMIN=  -14


 serial   3D FFT for wavefunctions
 parallel 3D FFT for charge:
    minimum data exchange during FFTs selected (reduces bandwidth)


 total amount of memory used by VASP MPI-rank0    39050. kBytes
=======================================================================

   base      :      30000. kBytes
   nonl-proj :       6981. kBytes
   fftplans  :        561. kBytes
   grid      :        600. kBytes
   one-center:         12. kBytes
   wavefun   :        896. kBytes
 
     INWAV:  cpu time    0.0839: real time    0.0857
 Broyden mixing: mesh for mixing (old mesh)
   NGX =  9   NGY =  9   NGZ = 27
  (NGX  = 28   NGY  = 28   NGZ  = 84)
  gives a total of   2187 points

 charge density for first step will be calculated from the start-wavefunctions


--------------------------------------------------------------------------------------------------------


 Maximum index for augmentation-charges         1246 (set IRDMAX)


--------------------------------------------------------------------------------------------------------


 initial charge from wavefunction
 First call to EWALD:  gamma=   0.513
 Maximum number of real-space cells 4x 4x 2
 Maximum number of reciprocal cells 2x 2x 5

    FEWALD:  cpu time    0.0017: real time    0.0018


--------------------------------------- Iteration      1(   1)  ---------------------------------------


    POTLOK:  cpu time    0.0036: real time    0.0049
    SETDIJ:  cpu time    0.0029: real time    0.0029
     EDDAV:  cpu time    0.4288: real time    0.4340
       DOS:  cpu time    0.0004: real time    0.0004
    CHARGE:  cpu time    0.0075: real time    0.0076
    MIXING:  cpu time    0.0004: real time    0.0005
    --------------------------------------------
      LOOP:  cpu time    0.4437: real time    0.4503

 eigenvalue-minimisations  :  2360
 total energy-change (2. order) :-0.3517868E+02  (-0.3607031E+01)
 number of electron      15.9999999 magnetization 
 augmentation part        0.4608853 magnetization 

 Broyden mixing:
  rms(total) = 0.15603E+00    rms(broyden)= 0.15587E+00
  rms(prec ) = 0.18150E+00
  weight for this iteration     100.00

 Free energy of the ion-electron system (eV)
  ---------------------------------------------------
  alpha Z        PSCENC =        34.59384069
  Ewald energy   TEWEN  =      -421.88703305
  -Hartree energ DENC   =      -283.30158723
  -exchange      EXHF   =         0.00000000
  -V(xc)+E(xc)   XCENC  =        56.79105394
  PAW double counting   =      1958.17394799    -1959.62882628
  entropy T*S    EENTRO =        -0.00000000
  eigenvalues    EBANDS =       -91.32800595
  atomic energy  EATOM  =       671.40793249
  Solvation  Ediel_sol  =         0.00000000
  ---------------------------------------------------
  free energy    TOTEN  =       -35.17867739 eV

  energy without entropy =      -35.17867739  energy(sigma->0) =      -35.17867739


--------------------------------------------------------------------------------------------------------




--------------------------------------- Iteration      1(   2)  ---------------------------------------


    POTLOK:  cpu time    0.0022: real time    0.0024
    SETDIJ:  cpu time    0.0025: real time    0.0025
     EDDAV:  cpu time    0.4494: real time    0.4547
       DOS:  cpu time    0.0004: real time    0.0004
    CHARGE:  cpu time    0.0079: real time    0.0080
    MIXING:  cpu time    0.0003: real time    0.0003
    --------------------------------------------
      LOOP:  cpu time    0.4625: real time    0.4682

 eigenvalue-minimisations  :  2400
 total energy-change (2. order) :-0.1597766E-01  (-0.4029609E-01)
 number of electron      15.9999999 magnetization 
 augmentation part        0.4703818 magnetization 

 Broyden mixing:
  rms(total) = 0.11638E+00    rms(broyden)= 0.11637E+00
  rms(prec ) = 0.11868E+00
  weight for this iteration     100.00

 eigenvalues of (default mixing * dielectric matrix)
  average eigenvalue GAMMA=   1.4031
  1.4031

 Free energy of the ion-electron system (eV)
  ---------------------------------------------------
  alpha Z        PSCENC =        34.59384069
  Ewald energy   TEWEN  =      -421.88703305
  -Hartree energ DENC   =      -281.70390548
  -exchange      EXHF   =         0.00000000
  -V(xc)+E(xc)   XCENC  =        56.68382215
  PAW double counting   =      1923.82994277    -1925.27744620
  entropy T*S    EENTRO =        -0.00000000
  eigenvalues    EBANDS =       -92.84180842
  atomic energy  EATOM  =       671.40793249
  Solvation  Ediel_sol  =         0.00000000
  ---------------------------------------------------
  free energy    TOTEN  =       -35.19465505 eV

  energy without entropy =      -35.19465505  energy(sigma->0) =      -35.19465505


--------------------------------------------------------------------------------------------------------




--------------------------------------- Iteration      1(   3)  ---------------------------------------


    POTLOK:  cpu time    0.0024: real time    0.0026
    SETDIJ:  cpu time    0.0025: real time    0.0025
     EDDAV:  cpu time    0.5594: real time    0.5661
       DOS:  cpu time    0.0003: real time    0.0003
    CHARGE:  cpu time    0.0078: real time    0.0079
    MIXING:  cpu time    0.0002: real time    0.0002
    --------------------------------------------
      LOOP:  cpu time    0.5726: real time    0.5796

 eigenvalue-minimisations  :  2620
 total energy-change (2. order) : 0.2896484E-03  (-0.2525632E-03)
 number of electron      15.9999999 magnetization 
 augmentation part        0.4707588 magnetization 

 Broyden mixing:
  rms(total) = 0.61803E-01    rms(broyden)= 0.61803E-01
  rms(prec ) = 0.62862E-01
  weight for this iteration     100.00

 eigenvalues of (default mixing * dielectric matrix)
  average eigenvalue GAMMA=   1.7871
  1.0755  2.4987

 Free energy of the ion-electron system (eV)
  ---------------------------------------------------
  alpha Z        PSCENC =        34.59384069
  Ewald energy   TEWEN  =      -421.88703305
  -Hartree energ DENC   =      -281.62197892
  -exchange      EXHF   =         0.00000000
  -V(xc)+E(xc)   XCENC  =        56.67950016
  PAW double counting   =      1887.63219662    -1889.08648105
  entropy T*S    EENTRO =        -0.00000000
  eigenvalues    EBANDS =       -92.91234235
  atomic energy  EATOM  =       671.40793249
  Solvation  Ediel_sol  =         0.00000000
  ---------------------------------------------------
  free energy    TOTEN  =       -35.19436540 eV

  energy without entropy =      -35.19436540  energy(sigma->0) =      -35.19436540


--------------------------------------------------------------------------------------------------------




--------------------------------------- Iteration      1(   4)  ---------------------------------------


    POTLOK:  cpu time    0.0023: real time    0.0026
    SETDIJ:  cpu time    0.0027: real time    0.0027
     EDDAV:  cpu time    0.5988: real time    0.6058
       DOS:  cpu time    0.0003: real time    0.0003
    --------------------------------------------
      LOOP:  cpu time    0.6042: real time    0.6115

 eigenvalue-minimisations  :  2820
 total energy-change (2. order) : 0.7563673E-04  (-0.3675004E-04)
 number of electron      15.9999999 magnetization 
 augmentation part        0.4707588 magnetization 

 Free energy of the ion-electron system (eV)
  ---------------------------------------------------
  alpha Z        PSCENC =        34.59384069
  Ewald energy   TEWEN  =      -421.88703305
  -Hartree energ DENC   =      -281.61651869
  -exchange      EXHF   =         0.00000000
  -V(xc)+E(xc)   XCENC  =        56.68202832
  PAW double counting   =      1850.32075958    -1851.78208413
  entropy T*S    EENTRO =        -0.00000000
  eigenvalues    EBANDS =       -92.91321497
  atomic energy  EATOM  =       671.40793249
  Solvation  Ediel_sol  =         0.00000000
  ---------------------------------------------------
  free energy    TOTEN  =       -35.19428976 eV

  energy without entropy =      -35.19428976  energy(sigma->0) =      -35.19428976


--------------------------------------------------------------------------------------------------------




 average (electrostatic) potential at core
  the test charge radii are     0.7672  0.7089
  (the norm of the test charge is              1.0000)
       1 -30.0240       2 -29.9932       3 -65.9235       4 -65.8877
 
 
 
 E-fermi :   1.4220     XC(G=0):  -9.2297     alpha+bet : -9.6182


 k-point     1 :       0.0000    0.0000    0.0000
  band No.  band energies     occupation 
      1     -16.3612      2.00000
      2     -16.2509      2.00000
      3      -4.4281      2.00000
      4      -3.3214      2.00000
      5      -0.0571      2.00000
      6      -0.0571      2.00000
      7      -0.0240      2.00000
      8      -0.0240      2.00000
      9       5.9600      0.00000
     10      10.1203      0.00000
     11      12.4705      0.00000
     12      12.7990      0.00000
     13      12.7991      0.00000
     14      12.8390      0.00000
     15      12.8390      0.00000
     16      14.0067      0.00000
     17      15.3018      0.00000
     18      16.1789      0.00000
     19      19.5853      0.00000
     20      25.6339      0.00000

 k-point     2 :       0.1250    0.0000    0.0000
  band No.  band energies     occupation 
      1     -16.0622      2.00000
      2     -15.9562      2.00000
      3      -4.0174      2.00000
      4      -2.9388      2.00000
      5      -1.2434      2.00000
      6      -1.2082      2.00000
      7      -0.5960      2.00000
      8      -0.5618      2.00000
      9       6.4866      0.00000
     10      10.1615      0.00000
     11      12.2872      0.00000
     12      12.6668      0.00000
     13      13.0523      0.00000
     14      13.6058      0.00000
     15      14.0759      0.00000
     16      14.1166      0.00000
     17      15.4248      0.00000
     18      16.2321      0.00000
     19      20.2097      0.00000
     20      24.3091      0.00000

 k-point     3 :       0.2500    0.0000    0.0000
  band No.  band energies     occupation 
      1     -15.2080      2.00000
      2     -15.1145      2.00000
      3      -3.8016      2.00000
      4      -3.7586      2.00000
      5      -2.8265      2.00000
      6      -1.8451      2.00000
      7      -1.6592      2.00000
      8      -1.6235      2.00000
      9       7.8416      0.00000
     10       9.5443      0.00000
     11      10.6181      0.00000
     12      11.7442      0.00000
     13      12.3750      0.00000
     14      14.4500      0.00000
     15      15.5382      0.00000
     16      17.2231      0.00000
     17      17.2730      0.00000
     18      18.1582      0.00000
     19      21.1058      0.00000
     20      21.2157      0.00000

 k-point     4 :       0.3750    0.0000    0.0000
  band No.  band energies     occupation 
      1     -14.0080      2.00000
      2     -13.9380      2.00000
      3      -6.3509      2.00000
      4      -6.2970      2.00000
      5      -2.5148      2.00000
      6      -2.4780      2.00000
      7      -1.0618      2.00000
      8      -0.3153      2.00000
      9       7.3222      0.00000
     10       7.8860      0.00000
     11       9.7040      0.00000
     12      11.3043      0.00000
     13      12.4042      0.00000
     14      15.0268      0.00000
     15      16.5055      0.00000
     16      18.7779      0.00000
     17      19.0263      0.00000
     18      20.9009      0.00000
     19      20.9957      0.00000
     20      21.0317      0.00000

 k-point     5 :       0.5000    0.0000    0.0000
  band No.  band energies     occupation 
      1     -13.2684      2.00000
      2     -13.2271      2.00000
      3      -7.5742      2.00000
      4      -7.5149      2.00000
      5      -2.8282      2.00000
      6      -2.7912      2.00000
      7       0.2372      2.00000
      8       0.5304      2.00000
      9       5.7900      0.00000
     10       6.4488      0.00000
     11      10.8310      0.00000
     12      10.9997      0.00000
     13      13.6874      0.00000
     14      14.3021      0.00000
     15      15.9815      0.00000
     16      17.4846      0.00000
     17      19.7107      0.00000
     18      21.5123      0.00000
     19      22.4219      0.00000
     20      22.8310      0.00000

 k-point     6 :       0.1250    0.1250    0.0000
  band No.  band energies     occupation 
      1     -15.4838      2.00000
      2     -15.3860      2.00000
      3      -3.2149      2.00000
      4      -2.8630      2.00000
      5      -2.8287      2.00000
      6      -2.1982      2.00000
      7      -1.6477      2.00000
      8      -1.6144      2.00000
      9       7.4475      0.00000
     10       9.9004      0.00000
     11      11.4166      0.00000
     12      12.9320      0.00000
     13      13.0978      0.00000
     14      13.6216      0.00000
     15      14.5861      0.00000
     16      15.1147      0.00000
     17      16.6223      0.00000
     18      18.2344      0.00000
     19      21.1062      0.00000
     20      21.5912      0.00000

 k-point     7 :       0.2500    0.1250    0.0000
  band No.  band energies     occupation 
      1     -14.4332      2.00000
      2     -14.3527      2.00000
      3      -5.1572      2.00000
      4      -5.1145      2.00000
      5      -2.8891      2.00000
      6      -2.8521      2.00000
      7      -1.7130      2.00000
      8      -0.8515      2.00000
      9       8.4277      0.00000
     10       8.9297      0.00000
     11       9.1988      0.00000
     12      12.7441      0.00000
     13      13.3741      0.00000
     14      14.5119      0.00000
     15      15.5582      0.00000
     16      17.0823      0.00000
     17      18.4792      0.00000
     18      19.4462      0.00000
     19      20.6351      0.00000
     20      21.3963      0.00000

 k-point     8 :       0.3750    0.1250    0.0000
  band No.  band energies     occupation 
      1     -13.3342      2.00000
      2     -13.2837      2.00000
      3      -7.0759      2.00000
      4      -7.0207      2.00000
      5      -3.5668      2.00000
      6      -3.5268      2.00000
      7       0.0389      2.00000
      8       0.5247      2.00000
      9       6.2811      0.00000
     10       6.8045      0.00000
     11      11.3123      0.00000
     12      12.3586      0.00000
     13      13.6126      0.00000
     14      15.1680      0.00000
     15      15.5985      0.00000
     16      16.6497      0.00000
     17      19.0318      0.00000
     18      20.5152      0.00000
     19      20.6097      0.00000
     20      21.7550      0.00000

 k-point     9 :       0.2500    0.2500    0.0000
  band No.  band energies     occupation 
      1     -13.3955      2.00000
      2     -13.3381      2.00000
      3      -6.2808      2.00000
      4      -6.2452      2.00000
      5      -4.5682      2.00000
      6      -4.5300      2.00000
      7      -0.1133      2.00000
      8       0.4860      2.00000
      9       6.9224      0.00000
     10       7.0980      0.00000
     11      11.3906      0.00000
     12      14.4062      0.00000
     13      14.6524      0.00000
     14      15.2712      0.00000
     15      15.6174      0.00000
     16      15.8128      0.00000
     17      17.0699      0.00000
     18      19.9472      0.00000
     19      20.2031      0.00000
     20      20.5896      0.00000

 k-point    10 :       0.3750    0.2500    0.0000
  band No.  band energies     occupation 
      1     -12.8081      2.00000
      2     -12.7724      2.00000
      3      -6.8739      2.00000
      4      -6.8248      2.00000
      5      -5.2563      2.00000
      6      -5.2116      2.00000
      7       0.9999      2.00000
      8       1.1819      2.00000
      9       5.9230      0.00000
     10       6.1757      0.00000
     11      13.6249      0.00000
     12      13.9832      0.00000
     13      14.1098      0.00000
     14      14.5166      0.00000
     15      15.3193      0.00000
     16      16.5933      0.00000
     17      18.8624      0.00000
     18      19.7885      0.00000
     19      20.2179      0.00000
     20      20.3104      0.00000

 k-point    11 :       0.0000    0.0000    0.1250
  band No.  band energies     occupation 
      1     -16.3574      2.00000
      2     -16.2549      2.00000
      3      -4.3918      2.00000
      4      -3.3713      2.00000
      5      -0.0571      2.00000
      6      -0.0571      2.00000
      7      -0.0241      2.00000
      8      -0.0241      2.00000
      9       6.0829      0.00000
     10       9.8466      0.00000
     11      12.6331      0.00000
     12      12.7997      0.00000
     13      12.7997      0.00000
     14      12.8383      0.00000
     15      12.8383      0.00000
     16      13.9776      0.00000
     17      15.3239      0.00000
     18      16.1126      0.00000
     19      19.8307      0.00000
     20      25.3647      0.00000

 k-point    12 :       0.1250    0.0000    0.1250
  band No.  band energies     occupation 
      1     -16.0586      2.00000
      2     -15.9600      2.00000
      3      -3.9820      2.00000
      4      -2.9874      2.00000
      5      -1.2427      2.00000
      6      -1.2079      2.00000
      7      -0.5959      2.00000
      8      -0.5620      2.00000
      9       6.6036      0.00000
     10       9.9678      0.00000
     11      12.3212      0.00000
     12      12.6577      0.00000
     13      13.0643      0.00000
     14      13.5515      0.00000
     15      14.0766      0.00000
     16      14.1159      0.00000
     17      15.5140      0.00000
     18      16.2214      0.00000
     19      20.3906      0.00000
     20      24.2188      0.00000

 k-point    13 :       0.2500    0.0000    0.1250
  band No.  band energies     occupation 
      1     -15.2049      2.00000
      2     -15.1177      2.00000
      3      -3.8014      2.00000
      4      -3.7602      2.00000
      5      -2.7927      2.00000
      6      -1.8874      2.00000
      7      -1.6589      2.00000
      8      -1.6237      2.00000
      9       7.9288      0.00000
     10       9.5079      0.00000
     11      10.6467      0.00000
     12      11.7219      0.00000
     13      12.3801      0.00000
     14      14.0005      0.00000
     15      15.9721      0.00000
     16      17.2244      0.00000
     17      17.2720      0.00000
     18      18.1249      0.00000
     19      21.0629      0.00000
     20      21.3449      0.00000

 k-point    14 :       0.3750    0.0000    0.1250
  band No.  band energies     occupation 
      1     -14.0060      2.00000
      2     -13.9402      2.00000
      3      -6.3497      2.00000
      4      -6.2985      2.00000
      5      -2.5144      2.00000
      6      -2.4784      2.00000
      7      -1.0354      2.00000
      8      -0.3460      2.00000
      9       7.3273      0.00000
     10       7.8372      0.00000
     11       9.8271      0.00000
     12      11.2907      0.00000
     13      12.4281      0.00000
     14      14.7395      0.00000
     15      16.7019      0.00000
     16      18.6678      0.00000
     17      19.1302      0.00000
     18      20.9032      0.00000
     19      20.9910      0.00000
     20      21.0286      0.00000

 k-point    15 :       0.5000    0.0000    0.1250
  band No.  band energies     occupation 
      1     -13.2678      2.00000
      2     -13.2277      2.00000
      3      -7.5727      2.00000
      4      -7.5167      2.00000
      5      -2.8279      2.00000
      6      -2.7916      2.00000
      7       0.2495      2.00000
      8       0.5210      2.00000
      9       5.8021      0.00000
     10       6.4086      0.00000
     11      10.8562      0.00000
     12      11.0106      0.00000
     13      13.7587      0.00000
     14      14.3292      0.00000
     15      15.9349      0.00000
     16      17.3622      0.00000
     17      19.6805      0.00000
     18      21.4321      0.00000
     19      22.5960      0.00000
     20      22.8324      0.00000

 k-point    16 :       0.1250    0.1250    0.1250
  band No.  band energies     occupation 
      1     -15.4805      2.00000
      2     -15.3894      2.00000
      3      -3.1837      2.00000
      4      -2.8633      2.00000
      5      -2.8274      2.00000
      6      -2.2411      2.00000
      7      -1.6476      2.00000
      8      -1.6145      2.00000
      9       7.5495      0.00000
     10       9.8298      0.00000
     11      11.4392      0.00000
     12      12.8959      0.00000
     13      13.0947      0.00000
     14      13.3650      0.00000
     15      14.7283      0.00000
     16      15.1117      0.00000
     17      16.7679      0.00000
     18      18.2086      0.00000
     19      21.1666      0.00000
     20      21.6373      0.00000

 k-point    17 :       0.2500    0.1250    0.1250
  band No.  band energies     occupation 
      1     -14.4306      2.00000
      2     -14.3553      2.00000
      3      -5.1566      2.00000
      4      -5.1154      2.00000
      5      -2.8888      2.00000
      6      -2.8525      2.00000
      7      -1.6831      2.00000
      8      -0.8878      2.00000
      9       8.4227      0.00000
     10       8.7729      0.00000
     11       9.4712      0.00000
     12      12.6849      0.00000
     13      13.3727      0.00000
     14      14.2022      0.00000
     15      15.8068      0.00000
     16      17.0610      0.00000
     17      18.5058      0.00000
     18      19.4336      0.00000
     19      20.5286      0.00000
     20      21.4067      0.00000

 k-point    18 :       0.3750    0.1250    0.1250
  band No.  band energies     occupation 
      1     -13.3331      2.00000
      2     -13.2848      2.00000
      3      -7.0745      2.00000
      4      -7.0223      2.00000
      5      -3.5663      2.00000
      6      -3.5274      2.00000
      7       0.0574      2.00000
      8       0.5065      2.00000
      9       6.2912      0.00000
     10       6.7730      0.00000
     11      11.3875      0.00000
     12      12.3512      0.00000
     13      13.6313      0.00000
     14      14.9802      0.00000
     15      15.7144      0.00000
     16      16.7378      0.00000
     17      18.8479      0.00000
     18      20.2367      0.00000
     19      20.9718      0.00000
     20      21.7843      0.00000

 k-point    19 :       0.2500    0.2500    0.1250
  band No.  band energies     occupation 
      1     -13.3941      2.00000
      2     -13.3397      2.00000
      3      -6.2805      2.00000
      4      -6.2456      2.00000
      5      -4.5678      2.00000
      6      -4.5306      2.00000
      7      -0.0915      2.00000
      8       0.4623      2.00000
      9       6.9240      0.00000
     10       7.0825      0.00000
     11      11.4877      0.00000
     12      14.1195      0.00000
     13      14.8287      0.00000
     14      15.2700      0.00000
     15      15.5603      0.00000
     16      15.9384      0.00000
     17      17.0770      0.00000
     18      19.3723      0.00000
     19      20.3338      0.00000
     20      21.0899      0.00000

 k-point    20 :       0.3750    0.2500    0.1250
  band No.  band energies     occupation 
      1     -12.8079      2.00000
      2     -12.7725      2.00000
      3      -6.8728      2.00000
      4      -6.8261      2.00000
      5      -5.2555      2.00000
      6      -5.2125      2.00000
      7       1.0080      2.00000
      8       1.1767      2.00000
      9       5.9291      0.00000
     10       6.1613      0.00000
     11      13.5405      0.00000
     12      13.8171      0.00000
     13      14.1732      0.00000
     14      14.7797      0.00000
     15      15.3728      0.00000
     16      16.6011      0.00000
     17      18.7474      0.00000
     18      19.7218      0.00000
     19      19.9152      0.00000
     20      20.6840      0.00000

 k-point    21 :       0.0000    0.0000    0.2500
  band No.  band energies     occupation 
      1     -16.3469      2.00000
      2     -16.2659      2.00000
      3      -4.2866      2.00000
      4      -3.5088      2.00000
      5      -0.0571      2.00000
      6      -0.0570      2.00000
      7      -0.0241      2.00000
      8      -0.0241      2.00000
      9       6.4371      0.00000
     10       9.2092      0.00000
     11      12.8015      0.00000
     12      12.8015      0.00000
     13      12.8365      0.00000
     14      12.8365      0.00000
     15      12.9622      0.00000
     16      13.8912      0.00000
     17      15.3877      0.00000
     18      15.9586      0.00000
     19      20.4959      0.00000
     20      24.6493      0.00000

 k-point    22 :       0.1250    0.0000    0.2500
  band No.  band energies     occupation 
      1     -16.0486      2.00000
      2     -15.9704      2.00000
      3      -3.8795      2.00000
      4      -3.1216      2.00000
      5      -1.2411      2.00000
      6      -1.2073      2.00000
      7      -0.5956      2.00000
      8      -0.5623      2.00000
      9       6.9405      0.00000
     10       9.4656      0.00000
     11      12.3942      0.00000
     12      12.6321      0.00000
     13      13.0991      0.00000
     14      13.4378      0.00000
     15      14.0784      0.00000
     16      14.1140      0.00000
     17      15.7053      0.00000
     18      16.1882      0.00000
     19      20.9048      0.00000
     20      23.9121      0.00000

 k-point    23 :       0.2500    0.0000    0.2500
  band No.  band energies     occupation 
      1     -15.1964      2.00000
      2     -15.1266      2.00000
      3      -3.8008      2.00000
      4      -3.7639      2.00000
      5      -2.6954      2.00000
      6      -2.0050      2.00000
      7      -1.6583      2.00000
      8      -1.6243      2.00000
      9       8.1711      0.00000
     10       9.3913      0.00000
     11      10.7407      0.00000
     12      11.6376      0.00000
     13      12.3988      0.00000
     14      13.3340      0.00000
     15      16.6138      0.00000
     16      17.2275      0.00000
     17      17.2685      0.00000
     18      18.0223      0.00000
     19      21.0569      0.00000
     20      21.5656      0.00000

 k-point    24 :       0.3750    0.0000    0.2500
  band No.  band energies     occupation 
      1     -14.0004      2.00000
      2     -13.9459      2.00000
      3      -6.3463      2.00000
      4      -6.3025      2.00000
      5      -2.5136      2.00000
      6      -2.4792      2.00000
      7      -0.9596      2.00000
      8      -0.4321      2.00000
      9       7.3483      0.00000
     10       7.7232      0.00000
     11      10.1426      0.00000
     12      11.2398      0.00000
     13      12.5106      0.00000
     14      14.1500      0.00000
     15      17.0522      0.00000
     16      18.4616      0.00000
     17      19.3134      0.00000
     18      20.9100      0.00000
     19      20.9794      0.00000
     20      21.0172      0.00000

 k-point    25 :       0.5000    0.0000    0.2500
  band No.  band energies     occupation 
      1     -13.2664      2.00000
      2     -13.2292      2.00000
      3      -7.5685      2.00000
      4      -7.5216      2.00000
      5      -2.8270      2.00000
      6      -2.7924      2.00000
      7       0.2841      2.00000
      8       0.4937      2.00000
      9       5.8420      0.00000
     10       6.3024      0.00000
     11      10.9183      0.00000
     12      11.0338      0.00000
     13      13.9476      0.00000
     14      14.4094      0.00000
     15      15.8232      0.00000
     16      17.0221      0.00000
     17      19.6687      0.00000
     18      21.2649      0.00000
     19      22.8372      0.00000
     20      22.9243      0.00000

 k-point    26 :       0.1250    0.1250    0.2500
  band No.  band energies     occupation 
      1     -15.4715      2.00000
      2     -15.3989      2.00000
      3      -3.0956      2.00000
      4      -2.8650      2.00000
      5      -2.8212      2.00000
      6      -2.3594      2.00000
      7      -1.6474      2.00000
      8      -1.6145      2.00000
      9       7.8393      0.00000
     10       9.6118      0.00000
     11      11.5112      0.00000
     12      12.6284      0.00000
     13      13.0817      0.00000
     14      13.1152      0.00000
     15      14.8980      0.00000
     16      15.1026      0.00000
     17      17.1094      0.00000
     18      18.1296      0.00000
     19      21.3023      0.00000
     20      21.7803      0.00000

 k-point    27 :       0.2500    0.1250    0.2500
  band No.  band energies     occupation 
      1     -14.4237      2.00000
      2     -14.3625      2.00000
      3      -5.1551      2.00000
      4      -5.1179      2.00000
      5      -2.8880      2.00000
      6      -2.8537      2.00000
      7      -1.5971      2.00000
      8      -0.9894      2.00000
      9       8.4148      0.00000
     10       8.6153      0.00000
     11       9.9591      0.00000
     12      12.4399      0.00000
     13      13.3694      0.00000
     14      13.7397      0.00000
     15      16.1783      0.00000
     16      16.9979      0.00000
     17      18.5867      0.00000
     18      19.3383      0.00000
     19      20.4401      0.00000
     20      21.4451      0.00000

 k-point    28 :       0.3750    0.1250    0.2500
  band No.  band energies     occupation 
      1     -13.3302      2.00000
      2     -13.2878      2.00000
      3      -7.0709      2.00000
      4      -7.0265      2.00000
      5      -3.5649      2.00000
      6      -3.5289      2.00000
      7       0.1099      2.00000
      8       0.4547      2.00000
      9       6.3239      0.00000
     10       6.6897      0.00000
     11      11.5876      0.00000
     12      12.3199      0.00000
     13      13.6906      0.00000
     14      14.6497      0.00000
     15      15.8707      0.00000
     16      16.9214      0.00000
     17      18.5073      0.00000
     18      19.9943      0.00000
     19      21.2855      0.00000
     20      21.8325      0.00000

 k-point    29 :       0.2500    0.2500    0.2500
  band No.  band energies     occupation 
      1     -13.3903      2.00000
      2     -13.3437      2.00000
      3      -6.2798      2.00000
      4      -6.2467      2.00000
      5      -4.5668      2.00000
      6      -4.5320      2.00000
      7      -0.0288      2.00000
      8       0.3954      2.00000
      9       6.9297      0.00000
     10       7.0447      0.00000
     11      11.7607      0.00000
     12      13.6649      0.00000
     13      14.9950      0.00000
     14      15.2638      0.00000
     15      15.5018      0.00000
     16      16.1604      0.00000
     17      17.0918      0.00000
     18      18.6878      0.00000
     19      20.5393      0.00000
     20      21.7006      0.00000

 k-point    30 :       0.3750    0.2500    0.2500
  band No.  band energies     occupation 
      1     -12.8074      2.00000
      2     -12.7730      2.00000
      3      -6.8699      2.00000
      4      -6.8292      2.00000
      5      -5.2535      2.00000
      6      -5.2150      2.00000
      7       1.0302      2.00000
      8       1.1614      2.00000
      9       5.9471      0.00000
     10       6.1229      0.00000
     11      13.3338      0.00000
     12      13.6640      0.00000
     13      14.3221      0.00000
     14      15.1414      0.00000
     15      15.5638      0.00000
     16      16.6234      0.00000
     17      18.4065      0.00000
     18      19.4915      0.00000
     19      19.8590      0.00000
     20      20.9649      0.00000

 k-point    31 :       0.0000    0.0000    0.3750
  band No.  band energies     occupation 
      1     -16.3322      2.00000
      2     -16.2811      2.00000
      3      -4.1235      2.00000
      4      -3.7037      2.00000
      5      -0.0572      2.00000
      6      -0.0572      2.00000
      7      -0.0244      2.00000
      8      -0.0244      2.00000
      9       6.9849      0.00000
     10       8.4419      0.00000
     11      12.8031      0.00000
     12      12.8031      0.00000
     13      12.8343      0.00000
     14      12.8343      0.00000
     15      13.2844      0.00000
     16      13.7494      0.00000
     17      15.4879      0.00000
     18      15.7841      0.00000
     19      21.4420      0.00000
     20      23.6544      0.00000

 k-point    32 :       0.1250    0.0000    0.3750
  band No.  band energies     occupation 
      1     -16.0346      2.00000
      2     -15.9848      2.00000
      3      -3.7205      2.00000
      4      -3.3115      2.00000
      5      -1.2396      2.00000
      6      -1.2066      2.00000
      7      -0.5953      2.00000
      8      -0.5625      2.00000
      9       7.4587      0.00000
     10       8.8022      0.00000
     11      12.4680      0.00000
     12      12.5932      0.00000
     13      13.1520      0.00000
     14      13.3264      0.00000
     15      14.0803      0.00000
     16      14.1118      0.00000
     17      15.8914      0.00000
     18      16.1278      0.00000
     19      21.6632      0.00000
     20      23.3377      0.00000

 k-point    33 :       0.2500    0.0000    0.3750
  band No.  band energies     occupation 
      1     -15.1847      2.00000
      2     -15.1385      2.00000
      3      -3.7999      2.00000
      4      -3.7677      2.00000
      5      -2.5467      2.00000
      6      -2.1738      2.00000
      7      -1.6577      2.00000
      8      -1.6250      2.00000
      9       8.5129      0.00000
     10       9.1804      0.00000
     11      10.9164      0.00000
     12      11.4503      0.00000
     13      12.4459      0.00000
     14      12.8304      0.00000
     15      17.1513      0.00000
     16      17.2310      0.00000
     17      17.2646      0.00000
     18      17.8429      0.00000
     19      21.0850      0.00000
     20      21.7525      0.00000

 k-point    34 :       0.3750    0.0000    0.3750
  band No.  band energies     occupation 
      1     -13.9932      2.00000
      2     -13.9532      2.00000
      3      -6.3422      2.00000
      4      -6.3073      2.00000
      5      -2.5127      2.00000
      6      -2.4800      2.00000
      7      -0.8441      2.00000
      8      -0.5578      2.00000
      9       7.3972      0.00000
     10       7.5942      0.00000
     11      10.5365      0.00000
     12      11.1203      0.00000
     13      12.6882      0.00000
     14      13.5309      0.00000
     15      17.3625      0.00000
     16      18.2349      0.00000
     17      19.4832      0.00000
     18      20.9199      0.00000
     19      20.9647      0.00000
     20      20.9969      0.00000

 k-point    35 :       0.5000    0.0000    0.3750
  band No.  band energies     occupation 
      1     -13.2648      2.00000
      2     -13.2308      2.00000
      3      -7.5632      2.00000
      4      -7.5275      2.00000
      5      -2.8261      2.00000
      6      -2.7934      2.00000
      7       0.3339      2.00000
      8       0.4510      2.00000
      9       5.9160      0.00000
     10       6.1635      0.00000
     11      10.9865      0.00000
     12      11.0479      0.00000
     13      14.1635      0.00000
     14      14.5229      0.00000
     15      15.7291      0.00000
     16      16.5953      0.00000
     17      19.7273      0.00000
     18      21.0893      0.00000
     19      22.8444      0.00000
     20      22.8918      0.00000

 k-point    36 :       0.1250    0.1250    0.3750
  band No.  band energies     occupation 
      1     -15.4591      2.00000
      2     -15.4116      2.00000
      3      -2.9747      2.00000
      4      -2.8709      2.00000
      5      -2.7956      2.00000
      6      -2.5250      2.00000
      7      -1.6471      2.00000
      8      -1.6146      2.00000
      9       8.2701      0.00000
     10       9.2448      0.00000
     11      11.6445      0.00000
     12      12.1993      0.00000
     13      13.0660      0.00000
     14      13.0852      0.00000
     15      14.9922      0.00000
     16      15.0872      0.00000
     17      17.4751      0.00000
     18      17.9917      0.00000
     19      21.4173      0.00000
     20      21.9744      0.00000

 k-point    37 :       0.2500    0.1250    0.3750
  band No.  band energies     occupation 
      1     -14.4145      2.00000
      2     -14.3719      2.00000
      3      -5.1533      2.00000
      4      -5.1206      2.00000
      5      -2.8872      2.00000
      6      -2.8548      2.00000
      7      -1.4655      2.00000
      8      -1.1364      2.00000
      9       8.4198      0.00000
     10       8.5132      0.00000
     11      10.5636      0.00000
     12      11.9188      0.00000
     13      13.3686      0.00000
     14      13.4842      0.00000
     15      16.4676      0.00000
     16      16.8975      0.00000
     17      18.7224      0.00000
     18      19.1370      0.00000
     19      20.4814      0.00000
     20      21.4690      0.00000

 k-point    38 :       0.3750    0.1250    0.3750
  band No.  band energies     occupation 
      1     -13.3268      2.00000
      2     -13.2911      2.00000
      3      -7.0664      2.00000
      4      -7.0315      2.00000
      5      -3.5634      2.00000
      6      -3.5305      2.00000
      7       0.1884      2.00000
      8       0.3771      2.00000
      9       6.3839      0.00000
     10       6.5809      0.00000
     11      11.8461      0.00000
     12      12.2395      0.00000
     13      13.8017      0.00000
     14      14.3197      0.00000
     15      16.0130      0.00000
     16      16.9882      0.00000
     17      18.3616      0.00000
     18      19.7450      0.00000
     19      21.4628      0.00000
     20      21.7986      0.00000

 k-point    39 :       0.2500    0.2500    0.3750
  band No.  band energies     occupation 
      1     -13.3856      2.00000
      2     -13.3484      2.00000
      3      -6.2791      2.00000
      4      -6.2478      2.00000
      5      -4.5657      2.00000
      6      -4.5336      2.00000
      7       0.0656      2.00000
      8       0.2968      2.00000
      9       6.9414      0.00000
     10       7.0025      0.00000
     11      12.1635      0.00000
     12      13.1643      0.00000
     13      15.1060      0.00000
     14      15.2457      0.00000
     15      15.4734      0.00000
     16      16.3523      0.00000
     17      17.1078      0.00000
     18      18.1844      0.00000
     19      20.7962      0.00000
     20      22.0354      0.00000

 k-point    40 :       0.3750    0.2500    0.3750
  band No.  band energies     occupation 
      1     -12.8069      2.00000
      2     -12.7736      2.00000
      3      -6.8665      2.00000
      4      -6.8330      2.00000
      5      -5.2511      2.00000
      6      -5.2178      2.00000
      7       1.0608      2.00000
      8       1.1375      2.00000
      9       5.9771      0.00000
     10       6.0727      0.00000
     11      13.1659      0.00000
     12      13.5691      0.00000
     13      14.4942      0.00000
     14      15.3015      0.00000
     15      15.9008      0.00000
     16      16.6468      0.00000
     17      18.0300      0.00000
     18      19.2257      0.00000
     19      19.9416      0.00000
     20      21.0495      0.00000

 k-point    41 :       0.0000    0.0000    0.5000
  band No.  band energies     occupation 
      1     -16.3224      2.00000
      2     -16.2911      2.00000
      3      -3.9344      2.00000
      4      -3.9057      2.00000
      5      -0.0572      2.00000
      6      -0.0571      2.00000
      7      -0.0244      2.00000
      8      -0.0244      2.00000
      9       7.6690      0.00000
     10       7.6787      0.00000
     11      12.8039      0.00000
     12      12.8039      0.00000
     13      12.8333      0.00000
     14      12.8334      0.00000
     15      13.5466      0.00000
     16      13.5500      0.00000
     17      15.6016      0.00000
     18      15.6433      0.00000
     19      22.4853      0.00000
     20      22.5906      0.00000

 k-point    42 :       0.1250    0.0000    0.5000
  band No.  band energies     occupation 
      1     -16.0255      2.00000
      2     -15.9941      2.00000
      3      -3.5369      2.00000
      4      -3.5077      2.00000
      5      -1.2390      2.00000
      6      -1.2064      2.00000
      7      -0.5952      2.00000
      8      -0.5627      2.00000
      9       8.0968      0.00000
     10       8.1084      0.00000
     11      12.5154      0.00000
     12      12.5576      0.00000
     13      13.2032      0.00000
     14      13.2547      0.00000
     15      14.0813      0.00000
     16      14.1110      0.00000
     17      16.0284      0.00000
     18      16.0358      0.00000
     19      22.4395      0.00000
     20      22.6286      0.00000

 k-point    43 :       0.2500    0.0000    0.5000
  band No.  band energies     occupation 
      1     -15.1775      2.00000
      2     -15.1458      2.00000
      3      -3.7994      2.00000
      4      -3.7693      2.00000
      5      -2.3785      2.00000
      6      -2.3504      2.00000
      7      -1.6574      2.00000
      8      -1.6252      2.00000
      9       8.8639      0.00000
     10       8.8857      0.00000
     11      11.1494      0.00000
     12      11.1994      0.00000
     13      12.5485      0.00000
     14      12.5743      0.00000
     15      17.2327      0.00000
     16      17.2628      0.00000
     17      17.4964      0.00000
     18      17.6198      0.00000
     19      21.1021      0.00000
     20      21.8208      0.00000

 k-point    44 :       0.3750    0.0000    0.5000
  band No.  band energies     occupation 
      1     -13.9893      2.00000
      2     -13.9572      2.00000
      3      -6.3401      2.00000
      4      -6.3097      2.00000
      5      -2.5124      2.00000
      6      -2.4804      2.00000
      7      -0.7185      2.00000
      8      -0.6877      2.00000
      9       7.4756      0.00000
     10       7.4852      0.00000
     11      10.8767      0.00000
     12      10.8996      0.00000
     13      12.9878      0.00000
     14      13.0542      0.00000
     15      17.5148      0.00000
     16      18.1062      0.00000
     17      19.5553      0.00000
     18      20.9261      0.00000
     19      20.9562      0.00000
     20      20.9845      0.00000

 k-point    45 :       0.5000    0.0000    0.5000
  band No.  band energies     occupation 
      1     -13.2640      2.00000
      2     -13.2314      2.00000
      3      -7.5604      2.00000
      4      -7.5305      2.00000
      5      -2.8257      2.00000
      6      -2.7937      2.00000
      7       0.3775      2.00000
      8       0.4105      2.00000
      9       6.0184      0.00000
     10       6.0347      0.00000
     11      11.0294      0.00000
     12      11.0384      0.00000
     13      14.2617      0.00000
     14      14.5860      0.00000
     15      15.7178      0.00000
     16      16.3659      0.00000
     17      19.7724      0.00000
     18      21.0069      0.00000
     19      22.8506      0.00000
     20      22.8785      0.00000

 k-point    46 :       0.1250    0.1250    0.5000
  band No.  band energies     occupation 
      1     -15.4512      2.00000
      2     -15.4197      2.00000
      3      -2.8982      2.00000
      4      -2.8884      2.00000
      5      -2.6985      2.00000
      6      -2.6912      2.00000
      7      -1.6470      2.00000
      8      -1.6146      2.00000
      9       8.7607      0.00000
     10       8.7779      0.00000
     11      11.8488      0.00000
     12      11.8804      0.00000
     13      13.0699      0.00000
     14      13.0748      0.00000
     15      15.0288      0.00000
     16      15.0727      0.00000
     17      17.7328      0.00000
     18      17.8191      0.00000
     19      21.4592      0.00000
     20      22.0676      0.00000

 k-point    47 :       0.2500    0.1250    0.5000
  band No.  band energies     occupation 
      1     -14.4092      2.00000
      2     -14.3773      2.00000
      3      -5.1525      2.00000
      4      -5.1217      2.00000
      5      -2.8868      2.00000
      6      -2.8553      2.00000
      7      -1.3189      2.00000
      8      -1.2893      2.00000
      9       8.4498      0.00000
     10       8.4519      0.00000
     11      11.2300      0.00000
     12      11.2553      0.00000
     13      13.3744      0.00000
     14      13.4130      0.00000
     15      16.6150      0.00000
     16      16.8111      0.00000
     17      18.8923      0.00000
     18      18.9322      0.00000
     19      20.5218      0.00000
     20      21.4728      0.00000

 k-point    48 :       0.3750    0.1250    0.5000
  band No.  band energies     occupation 
      1     -13.3252      2.00000
      2     -13.2927      2.00000
      3      -7.0641      2.00000
      4      -7.0340      2.00000
      5      -3.5627      2.00000
      6      -3.5312      2.00000
      7       0.2667      2.00000
      8       0.2991      2.00000
      9       6.4633      0.00000
     10       6.4816      0.00000
     11      12.0797      0.00000
     12      12.0830      0.00000
     13      13.9260      0.00000
     14      14.1094      0.00000
     15      16.0886      0.00000
     16      16.9472      0.00000
     17      18.3934      0.00000
     18      19.6062      0.00000
     19      21.5388      0.00000
     20      21.7423      0.00000

 k-point    49 :       0.2500    0.2500    0.5000
  band No.  band energies     occupation 
      1     -13.3833      2.00000
      2     -13.3509      2.00000
      3      -6.2788      2.00000
      4      -6.2483      2.00000
      5      -4.5652      2.00000
      6      -4.5342      2.00000
      7       0.1643      2.00000
      8       0.1963      2.00000
      9       6.9554      0.00000
     10       6.9760      0.00000
     11      12.5897      0.00000
     12      12.7087      0.00000
     13      15.1604      0.00000
     14      15.2234      0.00000
     15      15.4662      0.00000
     16      16.4284      0.00000
     17      17.1192      0.00000
     18      17.9906      0.00000
     19      20.9347      0.00000
     20      22.0891      0.00000

 k-point    50 :       0.3750    0.2500    0.5000
  band No.  band energies     occupation 
      1     -12.8067      2.00000
      2     -12.7739      2.00000
      3      -6.8648      2.00000
      4      -6.8347      2.00000
      5      -5.2500      2.00000
      6      -5.2191      2.00000
      7       1.0834      2.00000
      8       1.1177      2.00000
      9       6.0097      0.00000
     10       6.0318      0.00000
     11      13.1059      0.00000
     12      13.5344      0.00000
     13      14.5738      0.00000
     14      15.3372      0.00000
     15      16.0847      0.00000
     16      16.6472      0.00000
     17      17.8677      0.00000
     18      19.0978      0.00000
     19      19.9914      0.00000
     20      21.0606      0.00000


--------------------------------------------------------------------------------------------------------


 soft charge-density along one line, spin component           1
         0         1         2         3         4         5         6         7         8         9
 total charge-density along one line
 
 pseudopotential strength for first ion, spin component:           1
  6.448   9.818  -0.000  -0.000  -0.000  -0.000  -0.000  -0.000
  9.818  14.944  -0.000  -0.000  -0.000  -0.000  -0.000  -0.000
 -0.000  -0.000  -2.179  -0.000  -0.000  -3.706  -0.000  -0.000
 -0.000  -0.000  -0.000  -2.176  -0.000  -0.000  -3.699  -0.000
 -0.000  -0.000  -0.000  -0.000  -2.179  -0.000  -0.000  -3.706
 -0.000  -0.000  -3.706  -0.000  -0.000  -6.105  -0.000  -0.000
 -0.000  -0.000  -0.000  -3.699  -0.000  -0.000  -6.086  -0.000
 -0.000  -0.000  -0.000  -0.000  -3.706  -0.000  -0.000  -6.105
 total augmentation occupancy for first ion, spin component:           1
  4.193  -1.221   0.000   0.000   0.000  -0.000   0.000   0.000
 -1.221   0.384  -0.000   0.000   0.000  -0.000   0.000   0.000
  0.000  -0.000   4.891  -0.000   0.000  -1.470   0.000   0.000
  0.000   0.000   0.000   1.586   0.000  -0.000  -0.386   0.000
  0.000   0.000   0.000   0.000   4.891   0.000   0.000  -1.470
  0.000   0.000  -1.470   0.000   0.000   0.458   0.000   0.000
  0.000   0.000  -0.000  -0.386   0.000  -0.000   0.095   0.000
  0.000   0.000   0.000   0.000  -1.470   0.000   0.000   0.458


------------------------ aborting loop because EDIFF is reached ----------------------------------------


 


 total charge     
 
# of ion       s       p       d       tot
------------------------------------------
    1        0.740   1.413   0.000   2.154
    2        0.740   1.413   0.000   2.153
    3        1.225   2.785   0.000   4.010
    4        1.225   2.786   0.000   4.011
--------------------------------------------------
tot          3.930   8.398   0.000  12.328
 
    CHARGE:  cpu time    0.0055: real time    0.0056
    FORLOC:  cpu time    0.0001: real time    0.0001
    FORNL :  cpu time    0.0158: real time    0.0160
    STRESS:  cpu time    0.1400: real time    0.1417
    FORCOR:  cpu time    0.0018: real time    0.0019
    FORHAR:  cpu time    0.0006: real time    0.0006
    MIXING:  cpu time    0.0001: real time    0.0001
    OFIELD:  cpu time    0.0000: real time    0.0000

  FORCE on cell =-STRESS in cart. coord.  units (eV):
  Direction    XX          YY          ZZ          XY          YZ          ZX
  --------------------------------------------------------------------------------------
  Alpha Z    34.59384    34.59384    34.59384
  Ewald     121.29472   121.29472  -664.47690    -0.00000    -0.00000    -0.00000
  Hartree   223.86914   223.86914  -166.28675     0.00000    -0.00000     0.00000
  E(xc)     -63.11718   -63.11718   -64.94928     0.00000     0.00000     0.00000
  Local    -544.50985  -544.50911   600.38796     0.00000     0.00000    -0.00010
  n-local   -30.85803   -29.30076   -29.92904     0.13185    -0.00513     0.01680
  augment     2.16887     2.16874     2.52220     0.00000     0.00000    -0.00000
  Kinetic   258.41428   253.17271   288.12399     2.22354     0.05369    -0.16709
  Fock        0.00000     0.00000     0.00000     0.00000     0.00000     0.00000
  -------------------------------------------------------------------------------------
  Total       0.01394     0.01394    -0.01398    -0.00000    -0.00000    -0.00000
  in kB       0.54280     0.54280    -0.54427    -0.00000    -0.00000    -0.00000
  external pressure =        0.18 kB  Pullay stress =        0.00 kB


 VOLUME and BASIS-vectors are now :
 -----------------------------------------------------------------------------
  energy-cutoff  :      500.00
  volume of cell :       41.15
      direct lattice vectors                 reciprocal lattice vectors
     1.256237318 -2.175866861  0.000000000     0.398013968 -0.229793472  0.000000000
     1.256237318  2.175866861  0.000000000     0.398013968  0.229793472  0.000000000
     0.000000000  0.000000000  7.526459174     0.000000000  0.000000000  0.132864602

  length of vectors
     2.512474636  2.512474636  7.526459174     0.459586943  0.459586943  0.132864602


 FORCES acting on ions
    electron-ion (+dipol)            ewald-force                    non-local-force                 convergence-correction
 -----------------------------------------------------------------------------------------------
   -.343E-13 -.121E-04 0.848E-14   0.466E-14 -.651E-11 -.139E-13   0.000E+00 0.000E+00 0.000E+00   0.102E-14 0.814E-07 0.325E-13
   0.870E-14 -.159E-04 -.240E-12   0.347E-14 0.130E-10 0.139E-13   0.278E-16 0.222E-15 0.000E+00   -.540E-15 0.855E-07 -.311E-13
   0.176E-12 -.679E-06 -.820E-12   -.352E-14 0.651E-11 -.231E-13   0.347E-17 -.694E-17 0.000E+00   -.314E-14 0.162E-06 0.675E-13
   0.215E-12 -.277E-05 -.358E-11   -.271E-14 -.130E-10 0.231E-13   -.347E-17 0.208E-16 0.000E+00   0.626E-14 0.167E-06 -.622E-13
 -----------------------------------------------------------------------------------------------
   0.366E-12 -.315E-04 -.463E-11   0.191E-14 0.202E-14 0.000E+00   0.278E-16 0.236E-15 0.000E+00   0.361E-14 0.496E-06 0.676E-14
 
 
 POSITION                                       TOTAL-FORCE (eV/Angst)
 -----------------------------------------------------------------------------------
      0.00000      0.00000      0.00000         0.000000      0.000000      0.000000
      1.25624      0.72529      3.76323        -0.000000     -0.000000      0.000000
      1.25624      0.72529      0.00000        -0.000000     -0.000000      0.000000
      1.25624     -0.72529      3.76323        -0.000000      0.000000      0.000000
 -----------------------------------------------------------------------------------
    total drift:                                0.000000     -0.000031     -0.000000


--------------------------------------------------------------------------------------------------------



  FREE ENERGIE OF THE ION-ELECTRON SYSTEM (eV)
  ---------------------------------------------------
  free  energy   TOTEN  =       -35.19428976 eV

  energy  without entropy=      -35.19428976  energy(sigma->0) =      -35.19428976
 


--------------------------------------------------------------------------------------------------------


    POTLOK:  cpu time    0.0045: real time    0.0046


--------------------------------------------------------------------------------------------------------


 writing wavefunctions
     LOOP+:  cpu time    2.3651: real time    2.4029
    4ORBIT:  cpu time    0.0000: real time    0.0000
 


 total charge     
 
# of ion       s       p       d       tot
------------------------------------------
    1        0.740   1.413   0.000   2.154
    2        0.740   1.413   0.000   2.153
    3        1.225   2.785   0.000   4.010
    4        1.225   2.786   0.000   4.011
--------------------------------------------------
tot          3.930   8.398   0.000  12.328
 

 total amount of memory used by VASP MPI-rank0    39050. kBytes
=======================================================================

   base      :      30000. kBytes
   nonl-proj :       6981. kBytes
   fftplans  :        561. kBytes
   grid      :        600. kBytes
   one-center:         12. kBytes
   wavefun   :        896. kBytes
 
  
  
 General timing and accounting informations for this job:
 ========================================================
  
                  Total CPU time used (sec):        3.009
                            User time (sec):        2.620
                          System time (sec):        0.389
                         Elapsed time (sec):        3.327
  
                   Maximum memory used (kb):       83084.
                   Average memory used (kb):           0.
  
                          Minor page faults:        11188
                          Major page faults:            3
                 Voluntary context switches:         3385
