 vasp.5.4.4.18Apr17-6-g9f103f2a35 (build May 10 2019 17:57:18) complex          
  
 executed on             LinuxIFC date 2024.07.15  20:34:13
 running on   20 total cores
 distrk:  each k-point on   20 cores,    1 groups
 distr:  one band on NCORES_PER_BAND=   1 cores,   20 groups


--------------------------------------------------------------------------------------------------------


 INCAR:
 POTCAR:    PAW_PBE B 06Sep2000                   
 POTCAR:    PAW_PBE N 08Apr2002                   

 ----------------------------------------------------------------------------- 
|                                                                             |
|           W    W    AA    RRRRR   N    N  II  N    N   GGGG   !!!           |
|           W    W   A  A   R    R  NN   N  II  NN   N  G    G  !!!           |
|           W    W  A    A  R    R  N N  N  II  N N  N  G       !!!           |
|           W WW W  AAAAAA  RRRRR   N  N N  II  N  N N  G  GGG   !            |
|           WW  WW  A    A  R   R   N   NN  II  N   NN  G    G                |
|           W    W  A    A  R    R  N    N  II  N    N   GGGG   !!!           |
|                                                                             |
|      For optimal performance we recommend to set                            |
|        NCORE= 4 - approx SQRT( number of cores)                             |
|      NCORE specifies how many cores store one orbital (NPAR=cpu/NCORE).     |
|      This setting can  greatly improve the performance of VASP for DFT.     |
|      The default,   NCORE=1            might be grossly inefficient         |
|      on modern multi-core architectures or massively parallel machines.     |
|      Do your own testing !!!!                                               |
|      Unfortunately you need to use the default for GW and RPA calculations. |
|      (for HF NCORE is supported but not extensively tested yet)             |
|                                                                             |
 ----------------------------------------------------------------------------- 

 POTCAR:    PAW_PBE B 06Sep2000                   
   SHA256 =  a32ced30f5ae56fd4d10b4325ff17eb3e4e38ee0f4288bc219fb012fddfa6e97 B/
   COPYR  = (c) Copyright 06Sep2000 Georg Kresse                                
   COPYR  = This file is part of the software VASP. Any use, copying, and all ot
   COPYR  = If you do not have a valid VASP license, you may not use, copy or di
   VRHFIN =B: s2p1                                                              
   LEXCH  = PE                                                                  
   EATOM  =    71.1703 eV,    5.2309 Ry                                         
                                                                                
   TITEL  = PAW_PBE B 06Sep2000                                                 
   LULTRA =        F    use ultrasoft PP ?                                      
   IUNSCR =        1    unscreen: 0-lin 1-nonlin 2-no                           
   RPACOR =    1.200    partial core radius                                     
   POMASS =   10.811; ZVAL   =    3.000    mass and valenz                      
   RCORE  =    1.700    outmost cutoff radius                                   
   RWIGS  =    1.710; RWIGS  =    0.905    wigner-seitz radius (au A)           
   ENMAX  =  318.614; ENMIN  =  238.960 eV                                      
   ICORE  =        2    local potential                                         
   LCOR   =        T    correct aug charges                                     
   LPAW   =        T    paw PP                                                  
   EAUG   =  535.514                                                            
   DEXC   =    0.000                                                            
   RMAX   =    1.732    core radius for proj-oper                               
   RAUG   =    1.300    factor for augmentation sphere                          
   RDEP   =    1.757    radius for radial grids                                 
   RDEPT  =    1.436    core radius for aug-charge                              
                                                                                
   Atomic configuration                                                         
    4 entries                                                                   
     n  l   j            E        occ.                                          
     1  0  0.50      -180.5896   2.0000                                         
     2  0  0.50        -9.4431   2.0000                                         
     2  1  0.50        -3.6068   1.0000                                         
     3  2  1.50        -4.0817   0.0000                                         
   Description                                                                  
     l       E           TYP  RCUT    TYP  RCUT                                 
     0     -9.4430752     23  1.500                                             
     0      0.8675899     23  1.500                                             
     1     -3.6067955     23  1.700                                             
     1      6.1086146     23  1.700                                             
     2     -4.0817478      7  1.700                                             
  local pseudopotential read in
  partial core-charges read in
  partial kinetic energy density read in
  atomic valenz-charges read in
  non local Contribution for L=           0  read in
    real space projection operators read in
  non local Contribution for L=           0  read in
    real space projection operators read in
  non local Contribution for L=           1  read in
    real space projection operators read in
  non local Contribution for L=           1  read in
    real space projection operators read in
    PAW grid and wavefunctions read in
 
   number of l-projection  operators is LMAX  =           4
   number of lm-projection operators is LMMAX =           8
 
 POTCAR:    PAW_PBE N 08Apr2002                   
   SHA256 =  e053789ff3a61a86a1b75d8a110fcc91f86041011e7b0817c7c99e4e8a6349d7 N/
   COPYR  = (c) Copyright 08Apr2002 Georg Kresse                                
   COPYR  = This file is part of the software VASP. Any use, copying, and all ot
   COPYR  = If you do not have a valid VASP license, you may not use, copy or di
   VRHFIN =N: s2p3                                                              
   LEXCH  = PE                                                                  
   EATOM  =   264.5486 eV,   19.4438 Ry                                         
                                                                                
   TITEL  = PAW_PBE N 08Apr2002                                                 
   LULTRA =        F    use ultrasoft PP ?                                      
   IUNSCR =        1    unscreen: 0-lin 1-nonlin 2-no                           
   RPACOR =    1.200    partial core radius                                     
   POMASS =   14.001; ZVAL   =    5.000    mass and valenz                      
   RCORE  =    1.500    outmost cutoff radius                                   
   RWIGS  =    1.400; RWIGS  =    0.741    wigner-seitz radius (au A)           
   ENMAX  =  400.000; ENMIN  =  300.000 eV                                      
   ICORE  =        2    local potential                                         
   LCOR   =        T    correct aug charges                                     
   LPAW   =        T    paw PP                                                  
   EAUG   =  627.112                                                            
   DEXC   =    0.000                                                            
   RMAX   =    1.529    core radius for proj-oper                               
   RAUG   =    1.300    factor for augmentation sphere                          
   RDEP   =    1.514    radius for radial grids                                 
   RDEPT  =    1.338    core radius for aug-charge                              
                                                                                
   Atomic configuration                                                         
    4 entries                                                                   
     n  l   j            E        occ.                                          
     1  0  0.50      -384.7179   2.0000                                         
     2  0  0.50       -18.5828   2.0000                                         
     2  1  0.50        -7.0898   3.0000                                         
     3  2  1.50        -6.8029   0.0000                                         
   Description                                                                  
     l       E           TYP  RCUT    TYP  RCUT                                 
     0    -18.5828119     23  1.200                                             
     0    -13.5018863     23  1.200                                             
     1     -7.0897853     23  1.500                                             
     1      9.5240782     23  1.500                                             
     2     -6.8029130      7  1.500                                             
  local pseudopotential read in
  partial core-charges read in
  partial kinetic energy density read in
  atomic valenz-charges read in
  non local Contribution for L=           0  read in
    real space projection operators read in
  non local Contribution for L=           0  read in
    real space projection operators read in
  non local Contribution for L=           1  read in
    real space projection operators read in
  non local Contribution for L=           1  read in
    real space projection operators read in
    PAW grid and wavefunctions read in
 
   number of l-projection  operators is LMAX  =           4
   number of lm-projection operators is LMMAX =           8
 
  PAW_PBE B 06Sep2000                   :
 energy of atom  1       EATOM=  -71.1703
 kinetic energy error for atom=    0.0012 (will be added to EATOM!!)
  PAW_PBE N 08Apr2002                   :
 energy of atom  2       EATOM= -264.5486
 kinetic energy error for atom=    0.0138 (will be added to EATOM!!)
 
 
 POSCAR: B2 N2                                   
  positions in direct lattice
  velocities in cartesian coordinates
 exchange correlation table for  LEXCH =        8
   RHO(1)=    0.500       N(1)  =     2000
   RHO(2)=  100.500       N(2)  =     4000
 


--------------------------------------------------------------------------------------------------------


 ion  position               nearest neighbor table
   1  0.000  0.000  0.000-   3 1.45   3 1.45   3 1.45
   2  0.333  0.667  0.500-   4 1.45   4 1.45   4 1.45
   3  0.333  0.667  0.000-   1 1.45   1 1.45   1 1.45
   4  0.667  0.333  0.500-   2 1.45   2 1.45   2 1.45
 
  LATTYP: Found a hexagonal cell.
 ALAT       =     2.5124746362
 C/A-ratio  =     2.9956358826
  
  Lattice vectors:
  
 A1 = (   1.2562373181,  -2.1758668613,   0.0000000000)
 A2 = (   1.2562373181,   2.1758668613,   0.0000000000)
 A3 = (   0.0000000000,   0.0000000000,   7.5264591742)


Analysis of symmetry for initial positions (statically):
=====================================================================
 Subroutine PRICEL returns:
 Original cell was already a primitive cell.
 

 Routine SETGRP: Setting up the symmetry group for a 
 hexagonal supercell.


 Subroutine GETGRP returns: Found 12 space group operations
 (whereof 12 operations were pure point group operations)
 out of a pool of 24 trial point group operations.


The static configuration has the point symmetry D_3h.


Analysis of symmetry for dynamics (positions and initial velocities):
=====================================================================
 Subroutine PRICEL returns:
 Original cell was already a primitive cell.
 

 Routine SETGRP: Setting up the symmetry group for a 
 hexagonal supercell.


 Subroutine GETGRP returns: Found 12 space group operations
 (whereof 12 operations were pure point group operations)
 out of a pool of 24 trial point group operations.


The dynamic configuration has the point symmetry D_3h.


 Subroutine INISYM returns: Found 12 space group operations
 (whereof 12 operations are pure point group operations),
 and found     1 'primitive' translations

 
 
 KPOINTS: A                                       

Automatic generation of k-mesh.
Space group operators:
 irot       det(A)        alpha          n_x          n_y          n_z        tau_x        tau_y        tau_z
    1     1.000000     0.000000     1.000000     0.000000     0.000000     0.000000     0.000000     0.000000
    2    -1.000000    60.000000     0.000000     0.000000    -1.000000     0.000000     0.000000     0.000000
    3     1.000000   120.000000     0.000000     0.000000    -1.000000     0.000000     0.000000     0.000000
    4    -1.000000   180.000000     0.000000     0.000000     1.000000     0.000000     0.000000     0.000000
    5     1.000000   120.000000     0.000000     0.000000     1.000000     0.000000     0.000000     0.000000
    6    -1.000000    60.000000     0.000000     0.000000     1.000000     0.000000     0.000000     0.000000
    7    -1.000000   180.000000     0.500000    -0.866025     0.000000     0.000000     0.000000     0.000000
    8     1.000000   180.000000     0.000000     1.000000     0.000000     0.000000     0.000000     0.000000
    9    -1.000000   180.000000    -0.500000    -0.866025     0.000000     0.000000     0.000000     0.000000
   10     1.000000   180.000000     0.866025     0.500000     0.000000     0.000000     0.000000     0.000000
   11    -1.000000   180.000000     1.000000     0.000000     0.000000     0.000000     0.000000     0.000000
   12     1.000000   180.000000     0.866025    -0.500000     0.000000     0.000000     0.000000     0.000000
 
 Subroutine IBZKPT returns following result:
 ===========================================
 
 Found     40 irreducible k-points:
 
 Following reciprocal coordinates:
            Coordinates               Weight
  0.000000  0.000000  0.000000      1.000000
  0.125000  0.000000  0.000000      6.000000
  0.250000  0.000000  0.000000      6.000000
  0.375000  0.000000  0.000000      6.000000
  0.500000  0.000000  0.000000      3.000000
  0.125000  0.125000  0.000000      6.000000
  0.250000  0.125000  0.000000     12.000000
  0.375000  0.125000  0.000000     12.000000
  0.250000  0.250000  0.000000      6.000000
  0.375000  0.250000  0.000000      6.000000
  0.000000  0.000000  0.166667      2.000000
  0.125000  0.000000  0.166667     12.000000
  0.250000  0.000000  0.166667     12.000000
  0.375000  0.000000  0.166667     12.000000
  0.500000  0.000000  0.166667      6.000000
  0.125000  0.125000  0.166667     12.000000
  0.250000  0.125000  0.166667     24.000000
  0.375000  0.125000  0.166667     24.000000
  0.250000  0.250000  0.166667     12.000000
  0.375000  0.250000  0.166667     12.000000
  0.000000  0.000000  0.333333      2.000000
  0.125000  0.000000  0.333333     12.000000
  0.250000  0.000000  0.333333     12.000000
  0.375000  0.000000  0.333333     12.000000
  0.500000  0.000000  0.333333      6.000000
  0.125000  0.125000  0.333333     12.000000
  0.250000  0.125000  0.333333     24.000000
  0.375000  0.125000  0.333333     24.000000
  0.250000  0.250000  0.333333     12.000000
  0.375000  0.250000  0.333333     12.000000
  0.000000  0.000000  0.500000      1.000000
  0.125000  0.000000  0.500000      6.000000
  0.250000  0.000000  0.500000      6.000000
  0.375000  0.000000  0.500000      6.000000
  0.500000  0.000000  0.500000      3.000000
  0.125000  0.125000  0.500000      6.000000
  0.250000  0.125000  0.500000     12.000000
  0.375000  0.125000  0.500000     12.000000
  0.250000  0.250000  0.500000      6.000000
  0.375000  0.250000  0.500000      6.000000
 
 Following cartesian coordinates:
            Coordinates               Weight
  0.000000  0.000000  0.000000      1.000000
  0.049752 -0.028724  0.000000      6.000000
  0.099503 -0.057448  0.000000      6.000000
  0.149255 -0.086173  0.000000      6.000000
  0.199007 -0.114897  0.000000      3.000000
  0.099503  0.000000  0.000000      6.000000
  0.149255 -0.028724  0.000000     12.000000
  0.199007 -0.057448  0.000000     12.000000
  0.199007  0.000000  0.000000      6.000000
  0.248759 -0.028724  0.000000      6.000000
  0.000000  0.000000  0.022144      2.000000
  0.049752 -0.028724  0.022144     12.000000
  0.099503 -0.057448  0.022144     12.000000
  0.149255 -0.086173  0.022144     12.000000
  0.199007 -0.114897  0.022144      6.000000
  0.099503  0.000000  0.022144     12.000000
  0.149255 -0.028724  0.022144     24.000000
  0.199007 -0.057448  0.022144     24.000000
  0.199007  0.000000  0.022144     12.000000
  0.248759 -0.028724  0.022144     12.000000
  0.000000  0.000000  0.044288      2.000000
  0.049752 -0.028724  0.044288     12.000000
  0.099503 -0.057448  0.044288     12.000000
  0.149255 -0.086173  0.044288     12.000000
  0.199007 -0.114897  0.044288      6.000000
  0.099503  0.000000  0.044288     12.000000
  0.149255 -0.028724  0.044288     24.000000
  0.199007 -0.057448  0.044288     24.000000
  0.199007  0.000000  0.044288     12.000000
  0.248759 -0.028724  0.044288     12.000000
  0.000000  0.000000  0.066432      1.000000
  0.049752 -0.028724  0.066432      6.000000
  0.099503 -0.057448  0.066432      6.000000
  0.149255 -0.086173  0.066432      6.000000
  0.199007 -0.114897  0.066432      3.000000
  0.099503  0.000000  0.066432      6.000000
  0.149255 -0.028724  0.066432     12.000000
  0.199007 -0.057448  0.066432     12.000000
  0.199007  0.000000  0.066432      6.000000
  0.248759 -0.028724  0.066432      6.000000
 


--------------------------------------------------------------------------------------------------------




 Dimension of arrays:
   k-points           NKPTS =     40   k-points in BZ     NKDIM =     40   number of bands    NBANDS=     20
   number of dos      NEDOS =    301   number of ions     NIONS =      4
   non local maximal  LDIM  =      4   non local SUM 2l+1 LMDIM =      8
   total plane-waves  NPLWV =   8232
   max r-space proj   IRMAX =      1   max aug-charges    IRDMAX=  25156
   dimension x,y,z NGX =    14 NGY =   14 NGZ =   42
   dimension x,y,z NGXF=    28 NGYF=   28 NGZF=   84
   support grid    NGXF=    56 NGYF=   56 NGZF=  168
   ions per type =               2   2
   NGX,Y,Z   is equivalent  to a cutoff of   9.26,  9.26,  9.28 a.u.
   NGXF,Y,Z  is equivalent  to a cutoff of  18.53, 18.53, 18.55 a.u.

 SYSTEM =  BN                                      
 POSCAR =  B2 N2                                   

 Startparameter for this run:
   NWRITE =      2    write-flag & timer
   PREC   = normal    normal or accurate (medium, high low for compatibility)
   ISTART =      1    job   : 0-new  1-cont  2-samecut
   ICHARG =      0    charge: 1-file 2-atom 10-const
   ISPIN  =      1    spin polarized calculation?
   LNONCOLLINEAR =      F non collinear calculations
   LSORBIT =      F    spin-orbit coupling
   INIWAV =      1    electr: 0-lowe 1-rand  2-diag
   LASPH  =      F    aspherical Exc in radial PAW
   METAGGA=      F    non-selfconsistent MetaGGA calc.

 Electronic Relaxation 1
   ENCUT  =  500.0 eV  36.75 Ry    6.06 a.u.   4.58  4.58 13.72*2*pi/ulx,y,z
   ENINI  =  500.0     initial cutoff
   ENAUG  =  627.1 eV  augmentation charge cutoff
   NELM   =     60;   NELMIN=  2; NELMDL=  0     # of ELM steps 
   EDIFF  = 0.1E-03   stopping-criterion for ELM
   LREAL  =      F    real-space projection
   NLSPLINE    = F    spline interpolate recip. space projectors
   LCOMPAT=      F    compatible to vasp.4.4
   GGA_COMPAT  = T    GGA compatible to vasp.4.4-vasp.4.6
   LMAXPAW     = -100 max onsite density
   LMAXMIX     =    2 max onsite mixed and CHGCAR
   VOSKOWN=      0    Vosko Wilk Nusair interpolation
   ROPT   =    0.00000   0.00000
 Ionic relaxation
   EDIFFG = 0.1E-02   stopping-criterion for IOM
   NSW    =      0    number of steps for IOM
   NBLOCK =      1;   KBLOCK =      1    inner block; outer block 
   IBRION =     -1    ionic relax: 0-MD 1-quasi-New 2-CG
   NFREE  =      0    steps in history (QN), initial steepest desc. (CG)
   ISIF   =      2    stress and relaxation
   IWAVPR =     10    prediction:  0-non 1-charg 2-wave 3-comb
   ISYM   =      2    0-nonsym 1-usesym 2-fastsym
   LCORR  =      T    Harris-Foulkes like correction to forces

   POTIM  = 0.5000    time-step for ionic-motion
   TEIN   =    0.0    initial temperature
   TEBEG  =    0.0;   TEEND  =   0.0 temperature during run
   SMASS  =  -3.00    Nose mass-parameter (am)
   estimated Nose-frequenzy (Omega)   =  0.10E-29 period in steps =****** mass=  -0.144E-27a.u.
   SCALEE = 1.0000    scale energy and forces
   NPACO  =    256;   APACO  = 16.0  distance and # of slots for P.C.
   PSTRESS=    0.0 pullay stress

  Mass of Ions in am
   POMASS =  10.81 14.00
  Ionic Valenz
   ZVAL   =   3.00  5.00
  Atomic Wigner-Seitz radii
   RWIGS  =  -1.00 -1.00
  virtual crystal weights 
   VCA    =   1.00  1.00
   NELECT =      16.0000    total number of electrons
   NUPDOWN=      -1.0000    fix difference up-down

 DOS related values:
   EMIN   =  10.00;   EMAX   =-10.00  energy-range for DOS
   EFERMI =   0.00
   ISMEAR =     0;   SIGMA  =   0.05  broadening in eV -4-tet -1-fermi 0-gaus

 Electronic relaxation 2 (details)
   IALGO  =     38    algorithm
   LDIAG  =      T    sub-space diagonalisation (order eigenvalues)
   LSUBROT=      F    optimize rotation matrix (better conditioning)
   TURBO    =      0    0=normal 1=particle mesh
   IRESTART =      0    0=no restart 2=restart with 2 vectors
   NREBOOT  =      0    no. of reboots
   NMIN     =      0    reboot dimension
   EREF     =   0.00    reference energy to select bands
   IMIX   =      4    mixing-type and parameters
     AMIX     =   0.40;   BMIX     =  1.00
     AMIX_MAG =   1.60;   BMIX_MAG =  1.00
     AMIN     =   0.10
     WC   =   100.;   INIMIX=   1;  MIXPRE=   1;  MAXMIX= -45

 Intra band minimization:
   WEIMIN = 0.0000     energy-eigenvalue tresh-hold
   EBREAK =  0.13E-05  absolut break condition
   DEPER  =   0.30     relativ break condition  

   TIME   =   0.40     timestep for ELM

  volume/ion in A,a.u.               =      10.29        69.42
  Fermi-wavevector in a.u.,A,eV,Ry     =   1.194923  2.258077 19.426956  1.427841
  Thomas-Fermi vector in A             =   2.330901
 
 Write flags
   LWAVE        =      T    write WAVECAR
   LDOWNSAMPLE  =      F    k-point downsampling of WAVECAR
   LCHARG       =      T    write CHGCAR
   LVTOT        =      F    write LOCPOT, total local potential
   LVHAR        =      F    write LOCPOT, Hartree potential only
   LELF         =      F    write electronic localiz. function (ELF)
   LORBIT       =     11    0 simple, 1 ext, 2 COOP (PROOUT), +10 PAW based schemes


 Dipole corrections
   LMONO  =      F    monopole corrections only (constant potential shift)
   LDIPOL =      F    correct potential (dipole corrections)
   IDIPOL =      0    1-x, 2-y, 3-z, 4-all directions 
   EPSILON=  1.0000000 bulk dielectric constant

 Exchange correlation treatment:
   GGA     =    --    GGA type
   LEXCH   =     8    internal setting for exchange type
   VOSKOWN=      0    Vosko Wilk Nusair interpolation
   LHFCALC =     F    Hartree Fock is set to
   LHFONE  =     F    Hartree Fock one center treatment
   AEXX    =    0.0000 exact exchange contribution

 Linear response parameters
   LEPSILON=     F    determine dielectric tensor
   LRPA    =     F    only Hartree local field effects (RPA)
   LNABLA  =     F    use nabla operator in PAW spheres
   LVEL    =     F    velocity operator in full k-point grid
   LINTERFAST=   F  fast interpolation
   KINTER  =     0    interpolate to denser k-point grid
   CSHIFT  =0.1000    complex shift for real part using Kramers Kronig
   OMEGAMAX=  -1.0    maximum frequency
   DEG_THRESHOLD= 0.2000000E-02 threshold for treating states as degnerate
   RTIME   =   -0.100 relaxation time in fs
  (WPLASMAI=    0.000 imaginary part of plasma frequency in eV, 0.658/RTIME)
   DFIELD  = 0.0000000 0.0000000 0.0000000 field for delta impulse in time
 
 Orbital magnetization related:
   ORBITALMAG=     F  switch on orbital magnetization
   LCHIMAG   =     F  perturbation theory with respect to B field
   DQ        =  0.001000  dq finite difference perturbation B field
   LLRAUG    =     F  two centre corrections for induced B field



--------------------------------------------------------------------------------------------------------


 Static calculation
 charge density and potential will be updated during run
 non-spin polarized calculation
 Variant of blocked Davidson
 Davidson routine will perform the subspace rotation
 perform sub-space diagonalisation
    after iterative eigenvector-optimisation
 modified Broyden-mixing scheme, WC =      100.0
 initial mixing is a Kerker type mixing with AMIX =  0.4000 and BMIX =      1.0000
 Hartree-type preconditioning will be used
 using additional bands           12
 reciprocal scheme for non local part
 use partial core corrections
 calculate Harris-corrections to forces 
   (improved forces if not selfconsistent)
 use gradient corrections 
 use of overlap-Matrix (Vanderbilt PP)
 Gauss-broadening in eV      SIGMA  =   0.05


--------------------------------------------------------------------------------------------------------


  energy-cutoff  :      500.00
  volume of cell :       41.15
      direct lattice vectors                 reciprocal lattice vectors
     1.256237318 -2.175866861  0.000000000     0.398013968 -0.229793472  0.000000000
     1.256237318  2.175866861  0.000000000     0.398013968  0.229793472  0.000000000
     0.000000000  0.000000000  7.526459174     0.000000000  0.000000000  0.132864602

  length of vectors
     2.512474636  2.512474636  7.526459174     0.459586943  0.459586943  0.132864602


 
 old parameters found on file WAVECAR:
  energy-cutoff  :      500.00
  volume of cell :       41.15
      direct lattice vectors                 reciprocal lattice vectors
     1.256237318 -2.175866861  0.000000000     0.398013968 -0.229793472  0.000000000
     1.256237318  2.175866861  0.000000000     0.398013968  0.229793472  0.000000000
     0.000000000  0.000000000  7.526459174     0.000000000  0.000000000  0.132864602

  length of vectors

 
 k-points in units of 2pi/SCALE and weight: A                                       
   0.00000000  0.00000000  0.00000000       0.003
   0.04975175 -0.02872418  0.00000000       0.016
   0.09950349 -0.05744837  0.00000000       0.016
   0.14925524 -0.08617255  0.00000000       0.016
   0.19900698 -0.11489674  0.00000000       0.008
   0.09950349  0.00000000  0.00000000       0.016
   0.14925524 -0.02872418  0.00000000       0.031
   0.19900698 -0.05744837  0.00000000       0.031
   0.19900698  0.00000000  0.00000000       0.016
   0.24875873 -0.02872418  0.00000000       0.016
   0.00000000  0.00000000  0.02214410       0.005
   0.04975175 -0.02872418  0.02214410       0.031
   0.09950349 -0.05744837  0.02214410       0.031
   0.14925524 -0.08617255  0.02214410       0.031
   0.19900698 -0.11489674  0.02214410       0.016
   0.09950349  0.00000000  0.02214410       0.031
   0.14925524 -0.02872418  0.02214410       0.062
   0.19900698 -0.05744837  0.02214410       0.062
   0.19900698  0.00000000  0.02214410       0.031
   0.24875873 -0.02872418  0.02214410       0.031
   0.00000000  0.00000000  0.04428820       0.005
   0.04975175 -0.02872418  0.04428820       0.031
   0.09950349 -0.05744837  0.04428820       0.031
   0.14925524 -0.08617255  0.04428820       0.031
   0.19900698 -0.11489674  0.04428820       0.016
   0.09950349  0.00000000  0.04428820       0.031
   0.14925524 -0.02872418  0.04428820       0.062
   0.19900698 -0.05744837  0.04428820       0.062
   0.19900698  0.00000000  0.04428820       0.031
   0.24875873 -0.02872418  0.04428820       0.031
   0.00000000  0.00000000  0.06643230       0.003
   0.04975175 -0.02872418  0.06643230       0.016
   0.09950349 -0.05744837  0.06643230       0.016
   0.14925524 -0.08617255  0.06643230       0.016
   0.19900698 -0.11489674  0.06643230       0.008
   0.09950349  0.00000000  0.06643230       0.016
   0.14925524 -0.02872418  0.06643230       0.031
   0.19900698 -0.05744837  0.06643230       0.031
   0.19900698  0.00000000  0.06643230       0.016
   0.24875873 -0.02872418  0.06643230       0.016
 
 k-points in reciprocal lattice and weights: A                                       
   0.00000000  0.00000000  0.00000000       0.003
   0.12500000  0.00000000  0.00000000       0.016
   0.25000000  0.00000000  0.00000000       0.016
   0.37500000  0.00000000  0.00000000       0.016
   0.50000000  0.00000000  0.00000000       0.008
   0.12500000  0.12500000  0.00000000       0.016
   0.25000000  0.12500000  0.00000000       0.031
   0.37500000  0.12500000  0.00000000       0.031
   0.25000000  0.25000000  0.00000000       0.016
   0.37500000  0.25000000  0.00000000       0.016
   0.00000000  0.00000000  0.16666667       0.005
   0.12500000  0.00000000  0.16666667       0.031
   0.25000000  0.00000000  0.16666667       0.031
   0.37500000  0.00000000  0.16666667       0.031
   0.50000000  0.00000000  0.16666667       0.016
   0.12500000  0.12500000  0.16666667       0.031
   0.25000000  0.12500000  0.16666667       0.062
   0.37500000  0.12500000  0.16666667       0.062
   0.25000000  0.25000000  0.16666667       0.031
   0.37500000  0.25000000  0.16666667       0.031
   0.00000000  0.00000000  0.33333333       0.005
   0.12500000  0.00000000  0.33333333       0.031
   0.25000000  0.00000000  0.33333333       0.031
   0.37500000  0.00000000  0.33333333       0.031
   0.50000000  0.00000000  0.33333333       0.016
   0.12500000  0.12500000  0.33333333       0.031
   0.25000000  0.12500000  0.33333333       0.062
   0.37500000  0.12500000  0.33333333       0.062
   0.25000000  0.25000000  0.33333333       0.031
   0.37500000  0.25000000  0.33333333       0.031
   0.00000000  0.00000000  0.50000000       0.003
   0.12500000  0.00000000  0.50000000       0.016
   0.25000000  0.00000000  0.50000000       0.016
   0.37500000  0.00000000  0.50000000       0.016
   0.50000000  0.00000000  0.50000000       0.008
   0.12500000  0.12500000  0.50000000       0.016
   0.25000000  0.12500000  0.50000000       0.031
   0.37500000  0.12500000  0.50000000       0.031
   0.25000000  0.25000000  0.50000000       0.016
   0.37500000  0.25000000  0.50000000       0.016
 
 position of ions in fractional coordinates (direct lattice) 
   0.00000000  0.00000000  0.00000000
   0.33333333  0.66666667  0.50000000
   0.33333333  0.66666667  0.00000000
   0.66666667  0.33333333  0.50000000
 
 position of ions in cartesian coordinates  (Angst):
   0.00000000  0.00000000  0.00000000
   1.25623732  0.72528895  3.76322959
   1.25623732  0.72528895  0.00000000
   1.25623732 -0.72528895  3.76322959
 


--------------------------------------------------------------------------------------------------------


 k-point  1 :   0.0000 0.0000 0.0000  plane waves:    1041
 k-point  2 :   0.1250 0.0000 0.0000  plane waves:    1056
 k-point  3 :   0.2500 0.0000 0.0000  plane waves:    1062
 k-point  4 :   0.3750 0.0000 0.0000  plane waves:    1040
 k-point  5 :   0.5000 0.0000 0.0000  plane waves:    1032
 k-point  6 :   0.1250 0.1250 0.0000  plane waves:    1053
 k-point  7 :   0.2500 0.1250 0.0000  plane waves:    1050
 k-point  8 :   0.3750 0.1250 0.0000  plane waves:    1041
 k-point  9 :   0.2500 0.2500 0.0000  plane waves:    1025
 k-point 10 :   0.3750 0.2500 0.0000  plane waves:    1024
 k-point 11 :   0.0000 0.0000 0.1667  plane waves:    1053
 k-point 12 :   0.1250 0.0000 0.1667  plane waves:    1059
 k-point 13 :   0.2500 0.0000 0.1667  plane waves:    1059
 k-point 14 :   0.3750 0.0000 0.1667  plane waves:    1044
 k-point 15 :   0.5000 0.0000 0.1667  plane waves:    1036
 k-point 16 :   0.1250 0.1250 0.1667  plane waves:    1052
 k-point 17 :   0.2500 0.1250 0.1667  plane waves:    1047
 k-point 18 :   0.3750 0.1250 0.1667  plane waves:    1041
 k-point 19 :   0.2500 0.2500 0.1667  plane waves:    1041
 k-point 20 :   0.3750 0.2500 0.1667  plane waves:    1021
 k-point 21 :   0.0000 0.0000 0.3333  plane waves:    1054
 k-point 22 :   0.1250 0.0000 0.3333  plane waves:    1056
 k-point 23 :   0.2500 0.0000 0.3333  plane waves:    1056
 k-point 24 :   0.3750 0.0000 0.3333  plane waves:    1038
 k-point 25 :   0.5000 0.0000 0.3333  plane waves:    1038
 k-point 26 :   0.1250 0.1250 0.3333  plane waves:    1056
 k-point 27 :   0.2500 0.1250 0.3333  plane waves:    1047
 k-point 28 :   0.3750 0.1250 0.3333  plane waves:    1037
 k-point 29 :   0.2500 0.2500 0.3333  plane waves:    1037
 k-point 30 :   0.3750 0.2500 0.3333  plane waves:    1033
 k-point 31 :   0.0000 0.0000 0.5000  plane waves:    1048
 k-point 32 :   0.1250 0.0000 0.5000  plane waves:    1060
 k-point 33 :   0.2500 0.0000 0.5000  plane waves:    1050
 k-point 34 :   0.3750 0.0000 0.5000  plane waves:    1040
 k-point 35 :   0.5000 0.0000 0.5000  plane waves:    1020
 k-point 36 :   0.1250 0.1250 0.5000  plane waves:    1056
 k-point 37 :   0.2500 0.1250 0.5000  plane waves:    1048
 k-point 38 :   0.3750 0.1250 0.5000  plane waves:    1032
 k-point 39 :   0.2500 0.2500 0.5000  plane waves:    1048
 k-point 40 :   0.3750 0.2500 0.5000  plane waves:    1044

 maximum and minimum number of plane-waves per node :      1062     1020

 maximum number of plane-waves:      1062
 maximum index in each direction: 
   IXMAX=    4   IYMAX=    4   IZMAX=   13
   IXMIN=   -5   IYMIN=   -4   IZMIN=  -14


 serial   3D FFT for wavefunctions
 parallel 3D FFT for charge:
    minimum data exchange during FFTs selected (reduces bandwidth)


 total amount of memory used by VASP MPI-rank0    37487. kBytes
=======================================================================

   base      :      30000. kBytes
   nonl-proj :       5598. kBytes
   fftplans  :        561. kBytes
   grid      :        600. kBytes
   one-center:         12. kBytes
   wavefun   :        716. kBytes
 
     INWAV:  cpu time    0.0551: real time    0.0557
 Broyden mixing: mesh for mixing (old mesh)
   NGX =  9   NGY =  9   NGZ = 27
  (NGX  = 28   NGY  = 28   NGZ  = 84)
  gives a total of   2187 points

 charge density for first step will be calculated from the start-wavefunctions


--------------------------------------------------------------------------------------------------------


 Maximum index for augmentation-charges         1246 (set IRDMAX)


--------------------------------------------------------------------------------------------------------


 initial charge from wavefunction
 First call to EWALD:  gamma=   0.513
 Maximum number of real-space cells 4x 4x 2
 Maximum number of reciprocal cells 2x 2x 5

    FEWALD:  cpu time    0.0017: real time    0.0018


--------------------------------------- Iteration      1(   1)  ---------------------------------------


    POTLOK:  cpu time    0.0033: real time    0.0044
    SETDIJ:  cpu time    0.0030: real time    0.0030
     EDDAV:  cpu time    0.3494: real time    0.3537
       DOS:  cpu time    0.0004: real time    0.0004
    CHARGE:  cpu time    0.0068: real time    0.0069
    MIXING:  cpu time    0.0005: real time    0.0005
    --------------------------------------------
      LOOP:  cpu time    0.3634: real time    0.3690

 eigenvalue-minimisations  :  1880
 total energy-change (2. order) :-0.3518013E+02  (-0.4866488E+01)
 number of electron      15.9999999 magnetization 
 augmentation part        0.4577837 magnetization 

 Broyden mixing:
  rms(total) = 0.20984E+00    rms(broyden)= 0.20963E+00
  rms(prec ) = 0.24338E+00
  weight for this iteration     100.00

 Free energy of the ion-electron system (eV)
  ---------------------------------------------------
  alpha Z        PSCENC =        34.59384069
  Ewald energy   TEWEN  =      -421.88703305
  -Hartree energ DENC   =      -283.88381064
  -exchange      EXHF   =         0.00000000
  -V(xc)+E(xc)   XCENC  =        56.82898922
  PAW double counting   =      1996.39689470    -1997.84995976
  entropy T*S    EENTRO =        -0.00000000
  eigenvalues    EBANDS =       -90.78697933
  atomic energy  EATOM  =       671.40793249
  Solvation  Ediel_sol  =         0.00000000
  ---------------------------------------------------
  free energy    TOTEN  =       -35.18012567 eV

  energy without entropy =      -35.18012567  energy(sigma->0) =      -35.18012567


--------------------------------------------------------------------------------------------------------




--------------------------------------- Iteration      1(   2)  ---------------------------------------


    POTLOK:  cpu time    0.0024: real time    0.0024
    SETDIJ:  cpu time    0.0028: real time    0.0028
     EDDAV:  cpu time    0.3483: real time    0.3523
       DOS:  cpu time    0.0003: real time    0.0003
    CHARGE:  cpu time    0.0069: real time    0.0070
    MIXING:  cpu time    0.0003: real time    0.0003
    --------------------------------------------
      LOOP:  cpu time    0.3608: real time    0.3651

 eigenvalue-minimisations  :  1880
 total energy-change (2. order) :-0.1482599E-01  (-0.5778578E-01)
 number of electron      15.9999999 magnetization 
 augmentation part        0.4703766 magnetization 

 Broyden mixing:
  rms(total) = 0.15691E+00    rms(broyden)= 0.15691E+00
  rms(prec ) = 0.15994E+00
  weight for this iteration     100.00

 eigenvalues of (default mixing * dielectric matrix)
  average eigenvalue GAMMA=   1.4156
  1.4156

 Free energy of the ion-electron system (eV)
  ---------------------------------------------------
  alpha Z        PSCENC =        34.59384069
  Ewald energy   TEWEN  =      -421.88703305
  -Hartree energ DENC   =      -281.75901196
  -exchange      EXHF   =         0.00000000
  -V(xc)+E(xc)   XCENC  =        56.68601363
  PAW double counting   =      1949.53106096    -1950.97438091
  entropy T*S    EENTRO =        -0.00000000
  eigenvalues    EBANDS =       -92.79337351
  atomic energy  EATOM  =       671.40793249
  Solvation  Ediel_sol  =         0.00000000
  ---------------------------------------------------
  free energy    TOTEN  =       -35.19495166 eV

  energy without entropy =      -35.19495166  energy(sigma->0) =      -35.19495166


--------------------------------------------------------------------------------------------------------




--------------------------------------- Iteration      1(   3)  ---------------------------------------


    POTLOK:  cpu time    0.0024: real time    0.0026
    SETDIJ:  cpu time    0.0025: real time    0.0025
     EDDAV:  cpu time    0.4638: real time    0.4692
       DOS:  cpu time    0.0003: real time    0.0003
    CHARGE:  cpu time    0.0067: real time    0.0068
    MIXING:  cpu time    0.0002: real time    0.0002
    --------------------------------------------
      LOOP:  cpu time    0.4758: real time    0.4816

 eigenvalue-minimisations  :  2140
 total energy-change (2. order) : 0.5554376E-03  (-0.4280207E-03)
 number of electron      15.9999999 magnetization 
 augmentation part        0.4708705 magnetization 

 Broyden mixing:
  rms(total) = 0.82900E-01    rms(broyden)= 0.82899E-01
  rms(prec ) = 0.84288E-01
  weight for this iteration     100.00

 eigenvalues of (default mixing * dielectric matrix)
  average eigenvalue GAMMA=   1.7855
  1.0750  2.4960

 Free energy of the ion-electron system (eV)
  ---------------------------------------------------
  alpha Z        PSCENC =        34.59384069
  Ewald energy   TEWEN  =      -421.88703305
  -Hartree energ DENC   =      -281.65290532
  -exchange      EXHF   =         0.00000000
  -V(xc)+E(xc)   XCENC  =        56.68025692
  PAW double counting   =      1900.23015935    -1901.68251879
  entropy T*S    EENTRO =        -0.00000000
  eigenvalues    EBANDS =       -92.88412852
  atomic energy  EATOM  =       671.40793249
  Solvation  Ediel_sol  =         0.00000000
  ---------------------------------------------------
  free energy    TOTEN  =       -35.19439623 eV

  energy without entropy =      -35.19439623  energy(sigma->0) =      -35.19439623


--------------------------------------------------------------------------------------------------------




--------------------------------------- Iteration      1(   4)  ---------------------------------------


    POTLOK:  cpu time    0.0024: real time    0.0026
    SETDIJ:  cpu time    0.0026: real time    0.0027
     EDDAV:  cpu time    0.4697: real time    0.4753
       DOS:  cpu time    0.0002: real time    0.0003
    CHARGE:  cpu time    0.0069: real time    0.0069
    MIXING:  cpu time    0.0003: real time    0.0003
    --------------------------------------------
      LOOP:  cpu time    0.4821: real time    0.4881

 eigenvalue-minimisations  :  2180
 total energy-change (2. order) : 0.1346026E-03  (-0.6553162E-04)
 number of electron      15.9999999 magnetization 
 augmentation part        0.4701934 magnetization 

 Broyden mixing:
  rms(total) = 0.23191E-02    rms(broyden)= 0.23177E-02
  rms(prec ) = 0.35244E-02
  weight for this iteration     100.00

 eigenvalues of (default mixing * dielectric matrix)
  average eigenvalue GAMMA=   1.5664
  2.4976  1.1008  1.1008

 Free energy of the ion-electron system (eV)
  ---------------------------------------------------
  alpha Z        PSCENC =        34.59384069
  Ewald energy   TEWEN  =      -421.88703305
  -Hartree energ DENC   =      -281.64835467
  -exchange      EXHF   =         0.00000000
  -V(xc)+E(xc)   XCENC  =        56.68369489
  PAW double counting   =      1850.18677936    -1851.64844734
  entropy T*S    EENTRO =        -0.00000000
  eigenvalues    EBANDS =       -92.88267400
  atomic energy  EATOM  =       671.40793249
  Solvation  Ediel_sol  =         0.00000000
  ---------------------------------------------------
  free energy    TOTEN  =       -35.19426162 eV

  energy without entropy =      -35.19426162  energy(sigma->0) =      -35.19426162


--------------------------------------------------------------------------------------------------------




--------------------------------------- Iteration      1(   5)  ---------------------------------------


    POTLOK:  cpu time    0.0024: real time    0.0026
    SETDIJ:  cpu time    0.0026: real time    0.0027
     EDDAV:  cpu time    0.2374: real time    0.2403
       DOS:  cpu time    0.0002: real time    0.0002
    --------------------------------------------
      LOOP:  cpu time    0.2426: real time    0.2458

 eigenvalue-minimisations  :  1360
 total energy-change (2. order) : 0.9321433E-05  (-0.7399332E-05)
 number of electron      15.9999999 magnetization 
 augmentation part        0.4701934 magnetization 

 Free energy of the ion-electron system (eV)
  ---------------------------------------------------
  alpha Z        PSCENC =        34.59384069
  Ewald energy   TEWEN  =      -421.88703305
  -Hartree energ DENC   =      -281.56000524
  -exchange      EXHF   =         0.00000000
  -V(xc)+E(xc)   XCENC  =        56.67866039
  PAW double counting   =      1850.64676384    -1852.10739528
  entropy T*S    EENTRO =        -0.00000000
  eigenvalues    EBANDS =       -92.96701616
  atomic energy  EATOM  =       671.40793249
  Solvation  Ediel_sol  =         0.00000000
  ---------------------------------------------------
  free energy    TOTEN  =       -35.19425230 eV

  energy without entropy =      -35.19425230  energy(sigma->0) =      -35.19425230


--------------------------------------------------------------------------------------------------------




 average (electrostatic) potential at core
  the test charge radii are     0.7672  0.7089
  (the norm of the test charge is              1.0000)
       1 -30.0252       2 -29.9941       3 -65.9320       4 -65.8958
 
 
 
 E-fermi :   1.4199     XC(G=0):  -9.2304     alpha+bet : -9.6182


 k-point     1 :       0.0000    0.0000    0.0000
  band No.  band energies     occupation 
      1     -16.3645      2.00000
      2     -16.2543      2.00000
      3      -4.4298      2.00000
      4      -3.3237      2.00000
      5      -0.0616      2.00000
      6      -0.0616      2.00000
      7      -0.0282      2.00000
      8      -0.0282      2.00000
      9       5.9597      0.00000
     10      10.1183      0.00000
     11      12.4681      0.00000
     12      12.7967      0.00000
     13      12.7968      0.00000
     14      12.8369      0.00000
     15      12.8369      0.00000
     16      14.0038      0.00000
     17      15.2996      0.00000
     18      16.1779      0.00000
     19      19.5846      0.00000
     20      25.6335      0.00000

 k-point     2 :       0.1250    0.0000    0.0000
  band No.  band energies     occupation 
      1     -16.0656      2.00000
      2     -15.9595      2.00000
      3      -4.0191      2.00000
      4      -2.9411      2.00000
      5      -1.2476      2.00000
      6      -1.2122      2.00000
      7      -0.6004      2.00000
      8      -0.5659      2.00000
      9       6.4862      0.00000
     10      10.1593      0.00000
     11      12.2850      0.00000
     12      12.6647      0.00000
     13      13.0497      0.00000
     14      13.6034      0.00000
     15      14.0734      0.00000
     16      14.1143      0.00000
     17      15.4242      0.00000
     18      16.2297      0.00000
     19      20.2089      0.00000
     20      24.3085      0.00000

 k-point     3 :       0.2500    0.0000    0.0000
  band No.  band energies     occupation 
      1     -15.2115      2.00000
      2     -15.1180      2.00000
      3      -3.8054      2.00000
      4      -3.7622      2.00000
      5      -2.8285      2.00000
      6      -1.8476      2.00000
      7      -1.6634      2.00000
      8      -1.6274      2.00000
      9       7.8411      0.00000
     10       9.5418      0.00000
     11      10.6161      0.00000
     12      11.7421      0.00000
     13      12.3731      0.00000
     14      14.4500      0.00000
     15      15.5357      0.00000
     16      17.2203      0.00000
     17      17.2704      0.00000
     18      18.1556      0.00000
     19      21.1052      0.00000
     20      21.2149      0.00000

 k-point     4 :       0.3750    0.0000    0.0000
  band No.  band energies     occupation 
      1     -14.0118      2.00000
      2     -13.9417      2.00000
      3      -6.3542      2.00000
      4      -6.3001      2.00000
      5      -2.5188      2.00000
      6      -2.4818      2.00000
      7      -1.0641      2.00000
      8      -0.3181      2.00000
      9       7.3207      0.00000
     10       7.8845      0.00000
     11       9.7032      0.00000
     12      11.3024      0.00000
     13      12.4028      0.00000
     14      15.0264      0.00000
     15      16.5039      0.00000
     16      18.7770      0.00000
     17      19.0247      0.00000
     18      20.8978      0.00000
     19      20.9927      0.00000
     20      21.0299      0.00000

 k-point     5 :       0.5000    0.0000    0.0000
  band No.  band energies     occupation 
      1     -13.2724      2.00000
      2     -13.2309      2.00000
      3      -7.5772      2.00000
      4      -7.5178      2.00000
      5      -2.8322      2.00000
      6      -2.7949      2.00000
      7       0.2343      2.00000
      8       0.5273      2.00000
      9       5.7892      0.00000
     10       6.4479      0.00000
     11      10.8293      0.00000
     12      10.9979      0.00000
     13      13.6866      0.00000
     14      14.3017      0.00000
     15      15.9807      0.00000
     16      17.4839      0.00000
     17      19.7082      0.00000
     18      21.5104      0.00000
     19      22.4215      0.00000
     20      22.8277      0.00000

 k-point     6 :       0.1250    0.1250    0.0000
  band No.  band energies     occupation 
      1     -15.4872      2.00000
      2     -15.3894      2.00000
      3      -3.2168      2.00000
      4      -2.8670      2.00000
      5      -2.8324      2.00000
      6      -2.2006      2.00000
      7      -1.6518      2.00000
      8      -1.6183      2.00000
      9       7.4471      0.00000
     10       9.8979      0.00000
     11      11.4144      0.00000
     12      12.9297      0.00000
     13      13.0956      0.00000
     14      13.6192      0.00000
     15      14.5860      0.00000
     16      15.1124      0.00000
     17      16.6197      0.00000
     18      18.2315      0.00000
     19      21.1054      0.00000
     20      21.5906      0.00000

 k-point     7 :       0.2500    0.1250    0.0000
  band No.  band energies     occupation 
      1     -14.4368      2.00000
      2     -14.3563      2.00000
      3      -5.1608      2.00000
      4      -5.1178      2.00000
      5      -2.8930      2.00000
      6      -2.8557      2.00000
      7      -1.7151      2.00000
      8      -0.8541      2.00000
      9       8.4256      0.00000
     10       8.9280      0.00000
     11       9.1983      0.00000
     12      12.7419      0.00000
     13      13.3721      0.00000
     14      14.5117      0.00000
     15      15.5557      0.00000
     16      17.0800      0.00000
     17      18.4787      0.00000
     18      19.4439      0.00000
     19      20.6333      0.00000
     20      21.3959      0.00000

 k-point     8 :       0.3750    0.1250    0.0000
  band No.  band energies     occupation 
      1     -13.3382      2.00000
      2     -13.2875      2.00000
      3      -7.0790      2.00000
      4      -7.0237      2.00000
      5      -3.5706      2.00000
      6      -3.5303      2.00000
      7       0.0361      2.00000
      8       0.5215      2.00000
      9       6.2801      0.00000
     10       6.8035      0.00000
     11      11.3111      0.00000
     12      12.3566      0.00000
     13      13.6112      0.00000
     14      15.1674      0.00000
     15      15.5976      0.00000
     16      16.6491      0.00000
     17      19.0294      0.00000
     18      20.5150      0.00000
     19      20.6078      0.00000
     20      21.7524      0.00000

 k-point     9 :       0.2500    0.2500    0.0000
  band No.  band energies     occupation 
      1     -13.3994      2.00000
      2     -13.3419      2.00000
      3      -6.2842      2.00000
      4      -6.2483      2.00000
      5      -4.5717      2.00000
      6      -4.5333      2.00000
      7      -0.1160      2.00000
      8       0.4828      2.00000
      9       6.9209      0.00000
     10       7.0970      0.00000
     11      11.3900      0.00000
     12      14.4059      0.00000
     13      14.6501      0.00000
     14      15.2689      0.00000
     15      15.6170      0.00000
     16      15.8104      0.00000
     17      17.0681      0.00000
     18      19.9470      0.00000
     19      20.2018      0.00000
     20      20.5889      0.00000

 k-point    10 :       0.3750    0.2500    0.0000
  band No.  band energies     occupation 
      1     -12.8122      2.00000
      2     -12.7762      2.00000
      3      -6.8770      2.00000
      4      -6.8279      2.00000
      5      -5.2597      2.00000
      6      -5.2147      2.00000
      7       0.9965      2.00000
      8       1.1785      2.00000
      9       5.9223      0.00000
     10       6.1751      0.00000
     11      13.6234      0.00000
     12      13.9817      0.00000
     13      14.1093      0.00000
     14      14.5162      0.00000
     15      15.3178      0.00000
     16      16.5914      0.00000
     17      18.8602      0.00000
     18      19.7865      0.00000
     19      20.2166      0.00000
     20      20.3101      0.00000

 k-point    11 :       0.0000    0.0000    0.1667
  band No.  band energies     occupation 
      1     -16.3580      2.00000
      2     -16.2613      2.00000
      3      -4.3658      2.00000
      4      -3.4108      2.00000
      5      -0.0617      2.00000
      6      -0.0616      2.00000
      7      -0.0284      2.00000
      8      -0.0283      2.00000
      9       6.1763      0.00000
     10       9.6584      0.00000
     11      12.7334      0.00000
     12      12.7978      0.00000
     13      12.7979      0.00000
     14      12.8356      0.00000
     15      12.8357      0.00000
     16      13.9520      0.00000
     17      15.3386      0.00000
     18      16.0659      0.00000
     19      20.0117      0.00000
     20      25.1673      0.00000

 k-point    12 :       0.1250    0.0000    0.1667
  band No.  band energies     occupation 
      1     -16.0593      2.00000
      2     -15.9662      2.00000
      3      -3.9567      2.00000
      4      -3.0261      2.00000
      5      -1.2464      2.00000
      6      -1.2117      2.00000
      7      -0.6002      2.00000
      8      -0.5662      2.00000
      9       6.6925      0.00000
     10       9.8255      0.00000
     11      12.3414      0.00000
     12      12.6487      0.00000
     13      13.0711      0.00000
     14      13.5139      0.00000
     15      14.0746      0.00000
     16      14.1131      0.00000
     17      15.5718      0.00000
     18      16.2106      0.00000
     19      20.5274      0.00000
     20      24.1434      0.00000

 k-point    13 :       0.2500    0.0000    0.1667
  band No.  band energies     occupation 
      1     -15.2061      2.00000
      2     -15.1235      2.00000
      3      -3.8051      2.00000
      4      -3.7648      2.00000
      5      -2.7688      2.00000
      6      -1.9216      2.00000
      7      -1.6629      2.00000
      8      -1.6278      2.00000
      9       7.9938      0.00000
     10       9.4763      0.00000
     11      10.6679      0.00000
     12      11.7006      0.00000
     13      12.3825      0.00000
     14      13.7722      0.00000
     15      16.1878      0.00000
     16      17.2226      0.00000
     17      17.2684      0.00000
     18      18.0960      0.00000
     19      21.0542      0.00000
     20      21.4144      0.00000

 k-point    14 :       0.3750    0.0000    0.1667
  band No.  band energies     occupation 
      1     -14.0082      2.00000
      2     -13.9454      2.00000
      3      -6.3521      2.00000
      4      -6.3028      2.00000
      5      -2.5182      2.00000
      6      -2.4823      2.00000
      7      -1.0176      2.00000
      8      -0.3719      2.00000
      9       7.3304      0.00000
     10       7.8022      0.00000
     11       9.9151      0.00000
     12      11.2771      0.00000
     13      12.4466      0.00000
     14      14.5581      0.00000
     15      16.8147      0.00000
     16      18.6037      0.00000
     17      19.1865      0.00000
     18      20.9019      0.00000
     19      20.9848      0.00000
     20      21.0241      0.00000

 k-point    15 :       0.5000    0.0000    0.1667
  band No.  band energies     occupation 
      1     -13.2714      2.00000
      2     -13.2319      2.00000
      3      -7.5746      2.00000
      4      -7.5210      2.00000
      5      -2.8316      2.00000
      6      -2.7955      2.00000
      7       0.2559      2.00000
      8       0.5107      2.00000
      9       5.8112      0.00000
     10       6.3783      0.00000
     11      10.8724      0.00000
     12      11.0161      0.00000
     13      13.8106      0.00000
     14      14.3499      0.00000
     15      15.9011      0.00000
     16      17.2688      0.00000
     17      19.6665      0.00000
     18      21.3798      0.00000
     19      22.7037      0.00000
     20      22.8301      0.00000

 k-point    16 :       0.1250    0.1250    0.1667
  band No.  band energies     occupation 
      1     -15.4816      2.00000
      2     -15.3954      2.00000
      3      -3.1620      2.00000
      4      -2.8676      2.00000
      5      -2.8298      2.00000
      6      -2.2756      2.00000
      7      -1.6516      2.00000
      8      -1.6183      2.00000
      9       7.6265      0.00000
     10       9.7716      0.00000
     11      11.4552      0.00000
     12      12.8452      0.00000
     13      13.0901      0.00000
     14      13.2426      0.00000
     15      14.7922      0.00000
     16      15.1072      0.00000
     17      16.8665      0.00000
     18      18.1857      0.00000
     19      21.2074      0.00000
     20      21.6735      0.00000

 k-point    17 :       0.2500    0.1250    0.1667
  band No.  band energies     occupation 
      1     -14.4324      2.00000
      2     -14.3608      2.00000
      3      -5.1598      2.00000
      4      -5.1195      2.00000
      5      -2.8925      2.00000
      6      -2.8565      2.00000
      7      -1.6625      2.00000
      8      -0.9178      2.00000
      9       8.4177      0.00000
     10       8.7119      0.00000
     11       9.6179      0.00000
     12      12.6287      0.00000
     13      13.3696      0.00000
     14      14.0369      0.00000
     15      15.9328      0.00000
     16      17.0422      0.00000
     17      18.5260      0.00000
     18      19.4133      0.00000
     19      20.4815      0.00000
     20      21.4165      0.00000

 k-point    18 :       0.3750    0.1250    0.1667
  band No.  band energies     occupation 
      1     -13.3363      2.00000
      2     -13.2894      2.00000
      3      -7.0767      2.00000
      4      -7.0264      2.00000
      5      -3.5696      2.00000
      6      -3.5313      2.00000
      7       0.0686      2.00000
      8       0.4896      2.00000
      9       6.2983      0.00000
     10       6.7488      0.00000
     11      11.4417      0.00000
     12      12.3423      0.00000
     13      13.6448      0.00000
     14      14.8743      0.00000
     15      15.7676      0.00000
     16      16.7968      0.00000
     17      18.7308      0.00000
     18      20.1523      0.00000
     19      21.0918      0.00000
     20      21.8009      0.00000

 k-point    19 :       0.2500    0.2500    0.1667
  band No.  band energies     occupation 
      1     -13.3970      2.00000
      2     -13.3445      2.00000
      3      -6.2837      2.00000
      4      -6.2491      2.00000
      5      -4.5710      2.00000
      6      -4.5343      2.00000
      7      -0.0775      2.00000
      8       0.4413      2.00000
      9       6.9239      0.00000
     10       7.0705      0.00000
     11      11.5603      0.00000
     12      13.9753      0.00000
     13      14.8899      0.00000
     14      15.2665      0.00000
     15      15.5362      0.00000
     16      16.0078      0.00000
     17      17.0799      0.00000
     18      19.1320      0.00000
     19      20.3910      0.00000
     20      21.3101      0.00000

 k-point    20 :       0.3750    0.2500    0.1667
  band No.  band energies     occupation 
      1     -12.8119      2.00000
      2     -12.7765      2.00000
      3      -6.8752      2.00000
      4      -6.8299      2.00000
      5      -5.2583      2.00000
      6      -5.2164      2.00000
      7       1.0106      2.00000
      8       1.1693      2.00000
      9       5.9330      0.00000
     10       6.1500      0.00000
     11      13.4757      0.00000
     12      13.7564      0.00000
     13      14.2138      0.00000
     14      14.9119      0.00000
     15      15.4156      0.00000
     16      16.6054      0.00000
     17      18.6525      0.00000
     18      19.6579      0.00000
     19      19.8647      0.00000
     20      20.7994      0.00000

 k-point    21 :       0.0000    0.0000    0.3333
  band No.  band energies     occupation 
      1     -16.3407      2.00000
      2     -16.2792      2.00000
      3      -4.1851      2.00000
      4      -3.6367      2.00000
      5      -0.0618      2.00000
      6      -0.0617      2.00000
      7      -0.0286      2.00000
      8      -0.0286      2.00000
      9       6.7832      0.00000
     10       8.7013      0.00000
     11      12.8001      0.00000
     12      12.8001      0.00000
     13      12.8328      0.00000
     14      12.8328      0.00000
     15      13.1797      0.00000
     16      13.7996      0.00000
     17      15.4488      0.00000
     18      15.8399      0.00000
     19      21.1036      0.00000
     20      24.0065      0.00000

 k-point    22 :       0.1250    0.0000    0.3333
  band No.  band energies     occupation 
      1     -16.0428      2.00000
      2     -15.9832      2.00000
      3      -3.7807      2.00000
      4      -3.2463      2.00000
      5      -1.2442      2.00000
      6      -1.2108      2.00000
      7      -0.5998      2.00000
      8      -0.5665      2.00000
      9       7.2683      0.00000
     10       9.0313      0.00000
     11      12.4424      0.00000
     12      12.6051      0.00000
     13      13.1299      0.00000
     14      13.3589      0.00000
     15      14.0772      0.00000
     16      14.1103      0.00000
     17      15.8321      0.00000
     18      16.1491      0.00000
     19      21.3908      0.00000
     20      23.5581      0.00000

 k-point    23 :       0.2500    0.0000    0.3333
  band No.  band energies     occupation 
      1     -15.1922      2.00000
      2     -15.1379      2.00000
      3      -3.8040      2.00000
      4      -3.7700      2.00000
      5      -2.6030      2.00000
      6      -2.1160      2.00000
      7      -1.6621      2.00000
      8      -1.6286      2.00000
      9       8.3916      0.00000
     10       9.2596      0.00000
     11      10.8464      0.00000
     12      11.5238      0.00000
     13      12.4237      0.00000
     14      12.9705      0.00000
     15      16.9858      0.00000
     16      17.2271      0.00000
     17      17.2633      0.00000
     18      17.9095      0.00000
     19      21.0741      0.00000
     20      21.6999      0.00000

 k-point    24 :       0.3750    0.0000    0.3333
  band No.  band energies     occupation 
      1     -13.9993      2.00000
      2     -13.9544      2.00000
      3      -6.3469      2.00000
      4      -6.3089      2.00000
      5      -2.5170      2.00000
      6      -2.4835      2.00000
      7      -0.8886      2.00000
      8      -0.5155      2.00000
      9       7.3758      0.00000
     10       7.6351      0.00000
     11      10.4030      0.00000
     12      11.1687      0.00000
     13      12.6139      0.00000
     14      13.7297      0.00000
     15      17.2675      0.00000
     16      18.3074      0.00000
     17      19.4313      0.00000
     18      20.9133      0.00000
     19      20.9665      0.00000
     20      21.0023      0.00000

 k-point    25 :       0.5000    0.0000    0.3333
  band No.  band energies     occupation 
      1     -13.2693      2.00000
      2     -13.2341      2.00000
      3      -7.5680      2.00000
      4      -7.5284      2.00000
      5      -2.8304      2.00000
      6      -2.7968      2.00000
      7       0.3132      2.00000
      8       0.4635      2.00000
      9       5.8864      0.00000
     10       6.2103      0.00000
     11      10.9632      0.00000
     12      11.0437      0.00000
     13      14.0962      0.00000
     14      14.4841      0.00000
     15      15.7513      0.00000
     16      16.7331      0.00000
     17      19.7012      0.00000
     18      21.1419      0.00000
     19      22.8383      0.00000
     20      22.8979      0.00000

 k-point    26 :       0.1250    0.1250    0.3333
  band No.  band energies     occupation 
      1     -15.4668      2.00000
      2     -15.4107      2.00000
      3      -3.0176      2.00000
      4      -2.8719      2.00000
      5      -2.8121      2.00000
      6      -2.4691      2.00000
      7      -1.6513      2.00000
      8      -1.6183      2.00000
      9       8.1141      0.00000
     10       9.3804      0.00000
     11      11.5899      0.00000
     12      12.3351      0.00000
     13      13.0659      0.00000
     14      13.0882      0.00000
     15      14.9659      0.00000
     16      15.0909      0.00000
     17      17.3563      0.00000
     18      18.0420      0.00000
     19      21.3853      0.00000
     20      21.9117      0.00000

 k-point    27 :       0.2500    0.1250    0.3333
  band No.  band energies     occupation 
      1     -14.4213      2.00000
      2     -14.3723      2.00000
      3      -5.1574      2.00000
      4      -5.1231      2.00000
      5      -2.8913      2.00000
      6      -2.8581      2.00000
      7      -1.5157      2.00000
      8      -1.0864      2.00000
      9       8.4139      0.00000
     10       8.5405      0.00000
     11      10.3507      0.00000
     12      12.1181      0.00000
     13      13.3661      0.00000
     14      13.5420      0.00000
     15      16.3807      0.00000
     16      16.9321      0.00000
     17      18.6704      0.00000
     18      19.2097      0.00000
     19      20.4576      0.00000
     20      21.4616      0.00000

 k-point    28 :       0.3750    0.1250    0.3333
  band No.  band energies     occupation 
      1     -13.3319      2.00000
      2     -13.2938      2.00000
      3      -7.0710      2.00000
      4      -7.0328      2.00000
      5      -3.5676      2.00000
      6      -3.5335      2.00000
      7       0.1572      2.00000
      8       0.4021      2.00000
      9       6.3597      0.00000
     10       6.6172      0.00000
     11      11.7571      0.00000
     12      12.2717      0.00000
     13      13.7570      0.00000
     14      14.4242      0.00000
     15      15.9670      0.00000
     16      16.9885      0.00000
     17      18.3749      0.00000
     18      19.8255      0.00000
     19      21.4130      0.00000
     20      21.8185      0.00000

 k-point    29 :       0.2500    0.2500    0.3333
  band No.  band energies     occupation 
      1     -13.3910      2.00000
      2     -13.3506      2.00000
      3      -6.2827      2.00000
      4      -6.2506      2.00000
      5      -4.5695      2.00000
      6      -4.5363      2.00000
      7       0.0287      2.00000
      8       0.3292      2.00000
      9       6.9353      0.00000
     10       7.0149      0.00000
     11      12.0176      0.00000
     12      13.3328      0.00000
     13      15.0722      0.00000
     14      15.2514      0.00000
     15      15.4785      0.00000
     16      16.2959      0.00000
     17      17.1010      0.00000
     18      18.3233      0.00000
     19      20.7114      0.00000
     20      21.9614      0.00000

 k-point    30 :       0.3750    0.2500    0.3333
  band No.  band energies     occupation 
      1     -12.8112      2.00000
      2     -12.7773      2.00000
      3      -6.8707      2.00000
      4      -6.8348      2.00000
      5      -5.2553      2.00000
      6      -5.2201      2.00000
      7       1.0468      2.00000
      8       1.1428      2.00000
      9       5.9651      0.00000
     10       6.0893      0.00000
     11      13.2103      0.00000
     12      13.5943      0.00000
     13      14.4397      0.00000
     14      15.2663      0.00000
     15      15.7862      0.00000
     16      16.6394      0.00000
     17      18.1417      0.00000
     18      19.3074      0.00000
     19      19.9095      0.00000
     20      21.0337      0.00000

 k-point    31 :       0.0000    0.0000    0.5000
  band No.  band energies     occupation 
      1     -16.3259      2.00000
      2     -16.2943      2.00000
      3      -3.9364      2.00000
      4      -3.9075      2.00000
      5      -0.0617      2.00000
      6      -0.0617      2.00000
      7      -0.0287      2.00000
      8      -0.0286      2.00000
      9       7.6680      0.00000
     10       7.6778      0.00000
     11      12.8016      0.00000
     12      12.8016      0.00000
     13      12.8313      0.00000
     14      12.8313      0.00000
     15      13.5437      0.00000
     16      13.5471      0.00000
     17      15.5998      0.00000
     18      15.6415      0.00000
     19      22.4850      0.00000
     20      22.5903      0.00000

 k-point    32 :       0.1250    0.0000    0.5000
  band No.  band energies     occupation 
      1     -16.0290      2.00000
      2     -15.9974      2.00000
      3      -3.5390      2.00000
      4      -3.5096      2.00000
      5      -1.2433      2.00000
      6      -1.2104      2.00000
      7      -0.5996      2.00000
      8      -0.5667      2.00000
      9       8.0958      0.00000
     10       8.1074      0.00000
     11      12.5131      0.00000
     12      12.5555      0.00000
     13      13.2007      0.00000
     14      13.2523      0.00000
     15      14.0788      0.00000
     16      14.1087      0.00000
     17      16.0265      0.00000
     18      16.0337      0.00000
     19      22.4390      0.00000
     20      22.6281      0.00000

 k-point    33 :       0.2500    0.0000    0.5000
  band No.  band energies     occupation 
      1     -15.1811      2.00000
      2     -15.1492      2.00000
      3      -3.8032      2.00000
      4      -3.7728      2.00000
      5      -2.3808      2.00000
      6      -2.3525      2.00000
      7      -1.6616      2.00000
      8      -1.6291      2.00000
      9       8.8624      0.00000
     10       8.8842      0.00000
     11      11.1478      0.00000
     12      11.1978      0.00000
     13      12.5468      0.00000
     14      12.5728      0.00000
     15      17.2299      0.00000
     16      17.2602      0.00000
     17      17.4941      0.00000
     18      17.6172      0.00000
     19      21.1015      0.00000
     20      21.8198      0.00000

 k-point    34 :       0.3750    0.0000    0.5000
  band No.  band energies     occupation 
      1     -13.9931      2.00000
      2     -13.9607      2.00000
      3      -6.3435      2.00000
      4      -6.3128      2.00000
      5      -2.5164      2.00000
      6      -2.4841      2.00000
      7      -0.7212      2.00000
      8      -0.6901      2.00000
      9       7.4740      0.00000
     10       7.4838      0.00000
     11      10.8752      0.00000
     12      10.8979      0.00000
     13      12.9868      0.00000
     14      13.0534      0.00000
     15      17.5135      0.00000
     16      18.1053      0.00000
     17      19.5533      0.00000
     18      20.9229      0.00000
     19      20.9533      0.00000
     20      20.9828      0.00000

 k-point    35 :       0.5000    0.0000    0.5000
  band No.  band energies     occupation 
      1     -13.2681      2.00000
      2     -13.2352      2.00000
      3      -7.5635      2.00000
      4      -7.5333      2.00000
      5      -2.8297      2.00000
      6      -2.7974      2.00000
      7       0.3743      2.00000
      8       0.4076      2.00000
      9       6.0175      0.00000
     10       6.0340      0.00000
     11      11.0277      0.00000
     12      11.0364      0.00000
     13      14.2607      0.00000
     14      14.5851      0.00000
     15      15.7174      0.00000
     16      16.3660      0.00000
     17      19.7703      0.00000
     18      21.0054      0.00000
     19      22.8472      0.00000
     20      22.8752      0.00000

 k-point    36 :       0.1250    0.1250    0.5000
  band No.  band energies     occupation 
      1     -15.4548      2.00000
      2     -15.4229      2.00000
      3      -2.9018      2.00000
      4      -2.8916      2.00000
      5      -2.7013      2.00000
      6      -2.6936      2.00000
      7      -1.6511      2.00000
      8      -1.6184      2.00000
      9       8.7594      0.00000
     10       8.7766      0.00000
     11      11.8469      0.00000
     12      11.8785      0.00000
     13      13.0679      0.00000
     14      13.0725      0.00000
     15      15.0266      0.00000
     16      15.0708      0.00000
     17      17.7304      0.00000
     18      17.8164      0.00000
     19      21.4587      0.00000
     20      22.0667      0.00000

 k-point    37 :       0.2500    0.1250    0.5000
  band No.  band energies     occupation 
      1     -14.4129      2.00000
      2     -14.3807      2.00000
      3      -5.1561      2.00000
      4      -5.1251      2.00000
      5      -2.8907      2.00000
      6      -2.8589      2.00000
      7      -1.3214      2.00000
      8      -1.2916      2.00000
      9       8.4478      0.00000
     10       8.4501      0.00000
     11      11.2292      0.00000
     12      11.2543      0.00000
     13      13.3725      0.00000
     14      13.4113      0.00000
     15      16.6130      0.00000
     16      16.8088      0.00000
     17      18.8918      0.00000
     18      18.9308      0.00000
     19      20.5189      0.00000
     20      21.4704      0.00000

 k-point    38 :       0.3750    0.1250    0.5000
  band No.  band energies     occupation 
      1     -13.3292      2.00000
      2     -13.2964      2.00000
      3      -7.0673      2.00000
      4      -7.0369      2.00000
      5      -3.5665      2.00000
      6      -3.5347      2.00000
      7       0.2636      2.00000
      8       0.2962      2.00000
      9       6.4622      0.00000
     10       6.4807      0.00000
     11      12.0778      0.00000
     12      12.0813      0.00000
     13      13.9249      0.00000
     14      14.1086      0.00000
     15      16.0877      0.00000
     16      16.9470      0.00000
     17      18.3916      0.00000
     18      19.6050      0.00000
     19      21.5366      0.00000
     20      21.7407      0.00000

 k-point    39 :       0.2500    0.2500    0.5000
  band No.  band energies     occupation 
      1     -13.3873      2.00000
      2     -13.3545      2.00000
      3      -6.2822      2.00000
      4      -6.2514      2.00000
      5      -4.5687      2.00000
      6      -4.5374      2.00000
      7       0.1613      2.00000
      8       0.1935      2.00000
      9       6.9541      0.00000
     10       6.9749      0.00000
     11      12.5888      0.00000
     12      12.7080      0.00000
     13      15.1582      0.00000
     14      15.2215      0.00000
     15      15.4646      0.00000
     16      16.4268      0.00000
     17      17.1184      0.00000
     18      17.9894      0.00000
     19      20.9336      0.00000
     20      22.0872      0.00000

 k-point    40 :       0.3750    0.2500    0.5000
  band No.  band energies     occupation 
      1     -12.8109      2.00000
      2     -12.7777      2.00000
      3      -6.8680      2.00000
      4      -6.8377      2.00000
      5      -5.2534      2.00000
      6      -5.2222      2.00000
      7       1.0799      2.00000
      8       1.1144      2.00000
      9       6.0089      0.00000
     10       6.0313      0.00000
     11      13.1049      0.00000
     12      13.5339      0.00000
     13      14.5721      0.00000
     14      15.3353      0.00000
     15      16.0831      0.00000
     16      16.6457      0.00000
     17      17.8672      0.00000
     18      19.0967      0.00000
     19      19.9896      0.00000
     20      21.0589      0.00000


--------------------------------------------------------------------------------------------------------


 soft charge-density along one line, spin component           1
         0         1         2         3         4         5         6         7         8         9
 total charge-density along one line
 
 pseudopotential strength for first ion, spin component:           1
  6.448   9.818  -0.000  -0.000  -0.000  -0.000  -0.000  -0.000
  9.818  14.944  -0.000  -0.000  -0.000  -0.000  -0.000  -0.000
 -0.000  -0.000  -2.179  -0.000  -0.000  -3.706  -0.000  -0.000
 -0.000  -0.000  -0.000  -2.177  -0.000  -0.000  -3.699  -0.000
 -0.000  -0.000  -0.000  -0.000  -2.179  -0.000  -0.000  -3.706
 -0.000  -0.000  -3.706  -0.000  -0.000  -6.105  -0.000  -0.000
 -0.000  -0.000  -0.000  -3.699  -0.000  -0.000  -6.087  -0.000
 -0.000  -0.000  -0.000  -0.000  -3.706  -0.000  -0.000  -6.105
 total augmentation occupancy for first ion, spin component:           1
  4.193  -1.221   0.000   0.000   0.000  -0.000   0.000   0.000
 -1.221   0.384  -0.000   0.000   0.000  -0.000   0.000   0.000
  0.000  -0.000   4.890   0.000   0.000  -1.470   0.000   0.000
  0.000   0.000   0.000   1.586   0.000  -0.000  -0.387   0.000
  0.000   0.000   0.000   0.000   4.890   0.000   0.000  -1.470
 -0.000  -0.000  -1.470  -0.000   0.000   0.457  -0.000   0.000
  0.000   0.000   0.000  -0.387   0.000  -0.000   0.095   0.000
  0.000   0.000   0.000   0.000  -1.470   0.000   0.000   0.457


------------------------ aborting loop because EDIFF is reached ----------------------------------------


 


 total charge     
 
# of ion       s       p       d       tot
------------------------------------------
    1        0.740   1.413   0.000   2.153
    2        0.740   1.413   0.000   2.153
    3        1.225   2.786   0.000   4.011
    4        1.225   2.786   0.000   4.012
--------------------------------------------------
tot          3.930   8.399   0.000  12.329
 
    CHARGE:  cpu time    0.0055: real time    0.0056
    FORLOC:  cpu time    0.0002: real time    0.0002
    FORNL :  cpu time    0.0142: real time    0.0144
    STRESS:  cpu time    0.1243: real time    0.1259
    FORCOR:  cpu time    0.0021: real time    0.0021
    FORHAR:  cpu time    0.0007: real time    0.0007
    MIXING:  cpu time    0.0001: real time    0.0001
    OFIELD:  cpu time    0.0000: real time    0.0000

  FORCE on cell =-STRESS in cart. coord.  units (eV):
  Direction    XX          YY          ZZ          XY          YZ          ZX
  --------------------------------------------------------------------------------------
  Alpha Z    34.59384    34.59384    34.59384
  Ewald     121.29472   121.29472  -664.47690    -0.00000    -0.00000    -0.00000
  Hartree   223.90688   223.90688  -166.29353     0.00000     0.00000     0.00000
  E(xc)     -63.11343   -63.11343   -64.94503     0.00000    -0.00000     0.00000
  Local    -544.54532  -544.54457   600.42046     0.00000    -0.00000    -0.00010
  n-local   -30.86570   -29.30888   -29.93965     0.13188    -0.00484     0.01606
  augment     2.17041     2.17028     2.52455     0.00000     0.00000    -0.00000
  Kinetic   258.43385   253.19923   288.16869     2.22528     0.05139    -0.15958
  Fock        0.00000     0.00000     0.00000     0.00000     0.00000     0.00000
  -------------------------------------------------------------------------------------
  Total       0.03666     0.03666     0.05243     0.00000     0.00000     0.00000
  in kB       1.42744     1.42744     2.04140     0.00000     0.00000     0.00000
  external pressure =        1.63 kB  Pullay stress =        0.00 kB


 VOLUME and BASIS-vectors are now :
 -----------------------------------------------------------------------------
  energy-cutoff  :      500.00
  volume of cell :       41.15
      direct lattice vectors                 reciprocal lattice vectors
     1.256237318 -2.175866861  0.000000000     0.398013968 -0.229793472  0.000000000
     1.256237318  2.175866861  0.000000000     0.398013968  0.229793472  0.000000000
     0.000000000  0.000000000  7.526459174     0.000000000  0.000000000  0.132864602

  length of vectors
     2.512474636  2.512474636  7.526459174     0.459586943  0.459586943  0.132864602


 FORCES acting on ions
    electron-ion (+dipol)            ewald-force                    non-local-force                 convergence-correction
 -----------------------------------------------------------------------------------------------
   -.996E-13 -.121E-04 0.344E-14   0.466E-14 -.651E-11 -.139E-13   -.278E-16 0.555E-16 0.000E+00   0.870E-15 0.641E-07 0.385E-13
   -.111E-12 -.159E-04 -.242E-12   0.347E-14 0.130E-10 0.139E-13   0.278E-16 0.611E-15 0.000E+00   0.215E-16 0.642E-07 -.377E-13
   0.473E-13 -.674E-06 -.814E-12   -.352E-14 0.651E-11 -.231E-13   -.347E-17 0.694E-17 0.000E+00   -.410E-14 0.111E-06 0.755E-13
   0.237E-12 -.277E-05 -.359E-11   -.271E-14 -.130E-10 0.231E-13   0.347E-17 -.347E-16 0.000E+00   0.159E-13 0.112E-06 -.726E-13
 -----------------------------------------------------------------------------------------------
   0.737E-13 -.315E-04 -.464E-11   0.191E-14 0.202E-14 0.000E+00   0.000E+00 0.638E-15 0.000E+00   0.126E-13 0.352E-06 0.368E-14
 
 
 POSITION                                       TOTAL-FORCE (eV/Angst)
 -----------------------------------------------------------------------------------
      0.00000      0.00000      0.00000        -0.000000      0.000000      0.000000
      1.25624      0.72529      3.76323         0.000000     -0.000000      0.000000
      1.25624      0.72529      0.00000         0.000000      0.000000      0.000000
      1.25624     -0.72529      3.76323         0.000000      0.000000      0.000000
 -----------------------------------------------------------------------------------
    total drift:                                0.000000     -0.000031     -0.000000


--------------------------------------------------------------------------------------------------------



  FREE ENERGIE OF THE ION-ELECTRON SYSTEM (eV)
  ---------------------------------------------------
  free  energy   TOTEN  =       -35.19425230 eV

  energy  without entropy=      -35.19425230  energy(sigma->0) =      -35.19425230
 


--------------------------------------------------------------------------------------------------------


    POTLOK:  cpu time    0.0051: real time    0.0052


--------------------------------------------------------------------------------------------------------


 writing wavefunctions
     LOOP+:  cpu time    2.1851: real time    2.2167
    4ORBIT:  cpu time    0.0000: real time    0.0000
 


 total charge     
 
# of ion       s       p       d       tot
------------------------------------------
    1        0.740   1.413   0.000   2.153
    2        0.740   1.413   0.000   2.153
    3        1.225   2.786   0.000   4.011
    4        1.225   2.786   0.000   4.012
--------------------------------------------------
tot          3.930   8.399   0.000  12.329
 

 total amount of memory used by VASP MPI-rank0    37487. kBytes
=======================================================================

   base      :      30000. kBytes
   nonl-proj :       5598. kBytes
   fftplans  :        561. kBytes
   grid      :        600. kBytes
   one-center:         12. kBytes
   wavefun   :        716. kBytes
 
  
  
 General timing and accounting informations for this job:
 ========================================================
  
                  Total CPU time used (sec):        2.760
                            User time (sec):        2.395
                          System time (sec):        0.366
                         Elapsed time (sec):        3.074
  
                   Maximum memory used (kb):       81132.
                   Average memory used (kb):           0.
  
                          Minor page faults:        11239
                          Major page faults:            2
                 Voluntary context switches:         3626
