 vasp.5.4.4.18Apr17-6-g9f103f2a35 (build May 10 2019 17:57:18) complex          
  
 executed on             LinuxIFC date 2024.07.15  18:29:23
 running on   20 total cores
 distrk:  each k-point on   20 cores,    1 groups
 distr:  one band on NCORES_PER_BAND=   1 cores,   20 groups


--------------------------------------------------------------------------------------------------------


 INCAR:
 POTCAR:    PAW_PBE B 06Sep2000                   
 POTCAR:    PAW_PBE N 08Apr2002                   

 ----------------------------------------------------------------------------- 
|                                                                             |
|           W    W    AA    RRRRR   N    N  II  N    N   GGGG   !!!           |
|           W    W   A  A   R    R  NN   N  II  NN   N  G    G  !!!           |
|           W    W  A    A  R    R  N N  N  II  N N  N  G       !!!           |
|           W WW W  AAAAAA  RRRRR   N  N N  II  N  N N  G  GGG   !            |
|           WW  WW  A    A  R   R   N   NN  II  N   NN  G    G                |
|           W    W  A    A  R    R  N    N  II  N    N   GGGG   !!!           |
|                                                                             |
|      For optimal performance we recommend to set                            |
|        NCORE= 4 - approx SQRT( number of cores)                             |
|      NCORE specifies how many cores store one orbital (NPAR=cpu/NCORE).     |
|      This setting can  greatly improve the performance of VASP for DFT.     |
|      The default,   NCORE=1            might be grossly inefficient         |
|      on modern multi-core architectures or massively parallel machines.     |
|      Do your own testing !!!!                                               |
|      Unfortunately you need to use the default for GW and RPA calculations. |
|      (for HF NCORE is supported but not extensively tested yet)             |
|                                                                             |
 ----------------------------------------------------------------------------- 

 POTCAR:    PAW_PBE B 06Sep2000                   
   SHA256 =  a32ced30f5ae56fd4d10b4325ff17eb3e4e38ee0f4288bc219fb012fddfa6e97 B/
   COPYR  = (c) Copyright 06Sep2000 Georg Kresse                                
   COPYR  = This file is part of the software VASP. Any use, copying, and all ot
   COPYR  = If you do not have a valid VASP license, you may not use, copy or di
   VRHFIN =B: s2p1                                                              
   LEXCH  = PE                                                                  
   EATOM  =    71.1703 eV,    5.2309 Ry                                         
                                                                                
   TITEL  = PAW_PBE B 06Sep2000                                                 
   LULTRA =        F    use ultrasoft PP ?                                      
   IUNSCR =        1    unscreen: 0-lin 1-nonlin 2-no                           
   RPACOR =    1.200    partial core radius                                     
   POMASS =   10.811; ZVAL   =    3.000    mass and valenz                      
   RCORE  =    1.700    outmost cutoff radius                                   
   RWIGS  =    1.710; RWIGS  =    0.905    wigner-seitz radius (au A)           
   ENMAX  =  318.614; ENMIN  =  238.960 eV                                      
   ICORE  =        2    local potential                                         
   LCOR   =        T    correct aug charges                                     
   LPAW   =        T    paw PP                                                  
   EAUG   =  535.514                                                            
   DEXC   =    0.000                                                            
   RMAX   =    1.732    core radius for proj-oper                               
   RAUG   =    1.300    factor for augmentation sphere                          
   RDEP   =    1.757    radius for radial grids                                 
   RDEPT  =    1.436    core radius for aug-charge                              
                                                                                
   Atomic configuration                                                         
    4 entries                                                                   
     n  l   j            E        occ.                                          
     1  0  0.50      -180.5896   2.0000                                         
     2  0  0.50        -9.4431   2.0000                                         
     2  1  0.50        -3.6068   1.0000                                         
     3  2  1.50        -4.0817   0.0000                                         
   Description                                                                  
     l       E           TYP  RCUT    TYP  RCUT                                 
     0     -9.4430752     23  1.500                                             
     0      0.8675899     23  1.500                                             
     1     -3.6067955     23  1.700                                             
     1      6.1086146     23  1.700                                             
     2     -4.0817478      7  1.700                                             
  local pseudopotential read in
  partial core-charges read in
  partial kinetic energy density read in
  atomic valenz-charges read in
  non local Contribution for L=           0  read in
    real space projection operators read in
  non local Contribution for L=           0  read in
    real space projection operators read in
  non local Contribution for L=           1  read in
    real space projection operators read in
  non local Contribution for L=           1  read in
    real space projection operators read in
    PAW grid and wavefunctions read in
 
   number of l-projection  operators is LMAX  =           4
   number of lm-projection operators is LMMAX =           8
 
 POTCAR:    PAW_PBE N 08Apr2002                   
   SHA256 =  e053789ff3a61a86a1b75d8a110fcc91f86041011e7b0817c7c99e4e8a6349d7 N/
   COPYR  = (c) Copyright 08Apr2002 Georg Kresse                                
   COPYR  = This file is part of the software VASP. Any use, copying, and all ot
   COPYR  = If you do not have a valid VASP license, you may not use, copy or di
   VRHFIN =N: s2p3                                                              
   LEXCH  = PE                                                                  
   EATOM  =   264.5486 eV,   19.4438 Ry                                         
                                                                                
   TITEL  = PAW_PBE N 08Apr2002                                                 
   LULTRA =        F    use ultrasoft PP ?                                      
   IUNSCR =        1    unscreen: 0-lin 1-nonlin 2-no                           
   RPACOR =    1.200    partial core radius                                     
   POMASS =   14.001; ZVAL   =    5.000    mass and valenz                      
   RCORE  =    1.500    outmost cutoff radius                                   
   RWIGS  =    1.400; RWIGS  =    0.741    wigner-seitz radius (au A)           
   ENMAX  =  400.000; ENMIN  =  300.000 eV                                      
   ICORE  =        2    local potential                                         
   LCOR   =        T    correct aug charges                                     
   LPAW   =        T    paw PP                                                  
   EAUG   =  627.112                                                            
   DEXC   =    0.000                                                            
   RMAX   =    1.529    core radius for proj-oper                               
   RAUG   =    1.300    factor for augmentation sphere                          
   RDEP   =    1.514    radius for radial grids                                 
   RDEPT  =    1.338    core radius for aug-charge                              
                                                                                
   Atomic configuration                                                         
    4 entries                                                                   
     n  l   j            E        occ.                                          
     1  0  0.50      -384.7179   2.0000                                         
     2  0  0.50       -18.5828   2.0000                                         
     2  1  0.50        -7.0898   3.0000                                         
     3  2  1.50        -6.8029   0.0000                                         
   Description                                                                  
     l       E           TYP  RCUT    TYP  RCUT                                 
     0    -18.5828119     23  1.200                                             
     0    -13.5018863     23  1.200                                             
     1     -7.0897853     23  1.500                                             
     1      9.5240782     23  1.500                                             
     2     -6.8029130      7  1.500                                             
  local pseudopotential read in
  partial core-charges read in
  partial kinetic energy density read in
  atomic valenz-charges read in
  non local Contribution for L=           0  read in
    real space projection operators read in
  non local Contribution for L=           0  read in
    real space projection operators read in
  non local Contribution for L=           1  read in
    real space projection operators read in
  non local Contribution for L=           1  read in
    real space projection operators read in
    PAW grid and wavefunctions read in
 
   number of l-projection  operators is LMAX  =           4
   number of lm-projection operators is LMMAX =           8
 
  PAW_PBE B 06Sep2000                   :
 energy of atom  1       EATOM=  -71.1703
 kinetic energy error for atom=    0.0012 (will be added to EATOM!!)
  PAW_PBE N 08Apr2002                   :
 energy of atom  2       EATOM= -264.5486
 kinetic energy error for atom=    0.0138 (will be added to EATOM!!)
 
 
 POSCAR: B2 N2                                   
  positions in direct lattice
  velocities in cartesian coordinates
 exchange correlation table for  LEXCH =        8
   RHO(1)=    0.500       N(1)  =     2000
   RHO(2)=  100.500       N(2)  =     4000
 


--------------------------------------------------------------------------------------------------------


 ion  position               nearest neighbor table
   1  0.000  0.000  0.000-   3 1.45   3 1.45   3 1.45
   2  0.333  0.667  0.500-   4 1.45   4 1.45   4 1.45
   3  0.333  0.667  0.000-   1 1.45   1 1.45   1 1.45
   4  0.667  0.333  0.500-   2 1.45   2 1.45   2 1.45
 
  LATTYP: Found a hexagonal cell.
 ALAT       =     2.5124746362
 C/A-ratio  =     2.9956358826
  
  Lattice vectors:
  
 A1 = (   1.2562373181,  -2.1758668613,   0.0000000000)
 A2 = (   1.2562373181,   2.1758668613,   0.0000000000)
 A3 = (   0.0000000000,   0.0000000000,   7.5264591742)


Analysis of symmetry for initial positions (statically):
=====================================================================
 Subroutine PRICEL returns:
 Original cell was already a primitive cell.
 

 Routine SETGRP: Setting up the symmetry group for a 
 hexagonal supercell.


 Subroutine GETGRP returns: Found 12 space group operations
 (whereof 12 operations were pure point group operations)
 out of a pool of 24 trial point group operations.


The static configuration has the point symmetry D_3h.


Analysis of symmetry for dynamics (positions and initial velocities):
=====================================================================
 Subroutine PRICEL returns:
 Original cell was already a primitive cell.
 

 Routine SETGRP: Setting up the symmetry group for a 
 hexagonal supercell.


 Subroutine GETGRP returns: Found 12 space group operations
 (whereof 12 operations were pure point group operations)
 out of a pool of 24 trial point group operations.


The dynamic configuration has the point symmetry D_3h.


 Subroutine INISYM returns: Found 12 space group operations
 (whereof 12 operations are pure point group operations),
 and found     1 'primitive' translations

 
 
 KPOINTS: A                                       

Automatic generation of k-mesh.
Space group operators:
 irot       det(A)        alpha          n_x          n_y          n_z        tau_x        tau_y        tau_z
    1     1.000000     0.000000     1.000000     0.000000     0.000000     0.000000     0.000000     0.000000
    2    -1.000000    60.000000     0.000000     0.000000    -1.000000     0.000000     0.000000     0.000000
    3     1.000000   120.000000     0.000000     0.000000    -1.000000     0.000000     0.000000     0.000000
    4    -1.000000   180.000000     0.000000     0.000000     1.000000     0.000000     0.000000     0.000000
    5     1.000000   120.000000     0.000000     0.000000     1.000000     0.000000     0.000000     0.000000
    6    -1.000000    60.000000     0.000000     0.000000     1.000000     0.000000     0.000000     0.000000
    7    -1.000000   180.000000     0.500000    -0.866025     0.000000     0.000000     0.000000     0.000000
    8     1.000000   180.000000     0.000000     1.000000     0.000000     0.000000     0.000000     0.000000
    9    -1.000000   180.000000    -0.500000    -0.866025     0.000000     0.000000     0.000000     0.000000
   10     1.000000   180.000000     0.866025     0.500000     0.000000     0.000000     0.000000     0.000000
   11    -1.000000   180.000000     1.000000     0.000000     0.000000     0.000000     0.000000     0.000000
   12     1.000000   180.000000     0.866025    -0.500000     0.000000     0.000000     0.000000     0.000000
 
 Subroutine IBZKPT returns following result:
 ===========================================
 
 Found     14 irreducible k-points:
 
 Following reciprocal coordinates:
            Coordinates               Weight
  0.000000  0.000000  0.000000      1.000000
  0.166667  0.000000  0.000000      6.000000
  0.333333  0.000000  0.000000      6.000000
  0.500000  0.000000  0.000000      3.000000
  0.166667  0.166667  0.000000      6.000000
  0.333333  0.166667  0.000000     12.000000
  0.333333  0.333333  0.000000      2.000000
  0.000000  0.000000  0.333333      2.000000
  0.166667  0.000000  0.333333     12.000000
  0.333333  0.000000  0.333333     12.000000
  0.500000  0.000000  0.333333      6.000000
  0.166667  0.166667  0.333333     12.000000
  0.333333  0.166667  0.333333     24.000000
  0.333333  0.333333  0.333333      4.000000
 
 Following cartesian coordinates:
            Coordinates               Weight
  0.000000  0.000000  0.000000      1.000000
  0.066336 -0.038299  0.000000      6.000000
  0.132671 -0.076598  0.000000      6.000000
  0.199007 -0.114897  0.000000      3.000000
  0.132671  0.000000  0.000000      6.000000
  0.199007 -0.038299  0.000000     12.000000
  0.265343  0.000000  0.000000      2.000000
  0.000000  0.000000  0.044288      2.000000
  0.066336 -0.038299  0.044288     12.000000
  0.132671 -0.076598  0.044288     12.000000
  0.199007 -0.114897  0.044288      6.000000
  0.132671  0.000000  0.044288     12.000000
  0.199007 -0.038299  0.044288     24.000000
  0.265343  0.000000  0.044288      4.000000
 


--------------------------------------------------------------------------------------------------------




 Dimension of arrays:
   k-points           NKPTS =     14   k-points in BZ     NKDIM =     14   number of bands    NBANDS=     20
   number of dos      NEDOS =    301   number of ions     NIONS =      4
   non local maximal  LDIM  =      4   non local SUM 2l+1 LMDIM =      8
   total plane-waves  NPLWV =   8232
   max r-space proj   IRMAX =      1   max aug-charges    IRDMAX=  25156
   dimension x,y,z NGX =    14 NGY =   14 NGZ =   42
   dimension x,y,z NGXF=    28 NGYF=   28 NGZF=   84
   support grid    NGXF=    56 NGYF=   56 NGZF=  168
   ions per type =               2   2
   NGX,Y,Z   is equivalent  to a cutoff of   9.26,  9.26,  9.28 a.u.
   NGXF,Y,Z  is equivalent  to a cutoff of  18.53, 18.53, 18.55 a.u.

 SYSTEM =  BN                                      
 POSCAR =  B2 N2                                   

 Startparameter for this run:
   NWRITE =      2    write-flag & timer
   PREC   = normal    normal or accurate (medium, high low for compatibility)
   ISTART =      1    job   : 0-new  1-cont  2-samecut
   ICHARG =      0    charge: 1-file 2-atom 10-const
   ISPIN  =      1    spin polarized calculation?
   LNONCOLLINEAR =      F non collinear calculations
   LSORBIT =      F    spin-orbit coupling
   INIWAV =      1    electr: 0-lowe 1-rand  2-diag
   LASPH  =      F    aspherical Exc in radial PAW
   METAGGA=      F    non-selfconsistent MetaGGA calc.

 Electronic Relaxation 1
   ENCUT  =  500.0 eV  36.75 Ry    6.06 a.u.   4.58  4.58 13.72*2*pi/ulx,y,z
   ENINI  =  500.0     initial cutoff
   ENAUG  =  627.1 eV  augmentation charge cutoff
   NELM   =     60;   NELMIN=  2; NELMDL=  0     # of ELM steps 
   EDIFF  = 0.1E-03   stopping-criterion for ELM
   LREAL  =      F    real-space projection
   NLSPLINE    = F    spline interpolate recip. space projectors
   LCOMPAT=      F    compatible to vasp.4.4
   GGA_COMPAT  = T    GGA compatible to vasp.4.4-vasp.4.6
   LMAXPAW     = -100 max onsite density
   LMAXMIX     =    2 max onsite mixed and CHGCAR
   VOSKOWN=      0    Vosko Wilk Nusair interpolation
   ROPT   =    0.00000   0.00000
 Ionic relaxation
   EDIFFG = 0.1E-02   stopping-criterion for IOM
   NSW    =      0    number of steps for IOM
   NBLOCK =      1;   KBLOCK =      1    inner block; outer block 
   IBRION =     -1    ionic relax: 0-MD 1-quasi-New 2-CG
   NFREE  =      0    steps in history (QN), initial steepest desc. (CG)
   ISIF   =      2    stress and relaxation
   IWAVPR =     10    prediction:  0-non 1-charg 2-wave 3-comb
   ISYM   =      2    0-nonsym 1-usesym 2-fastsym
   LCORR  =      T    Harris-Foulkes like correction to forces

   POTIM  = 0.5000    time-step for ionic-motion
   TEIN   =    0.0    initial temperature
   TEBEG  =    0.0;   TEEND  =   0.0 temperature during run
   SMASS  =  -3.00    Nose mass-parameter (am)
   estimated Nose-frequenzy (Omega)   =  0.10E-29 period in steps =****** mass=  -0.144E-27a.u.
   SCALEE = 1.0000    scale energy and forces
   NPACO  =    256;   APACO  = 16.0  distance and # of slots for P.C.
   PSTRESS=    0.0 pullay stress

  Mass of Ions in am
   POMASS =  10.81 14.00
  Ionic Valenz
   ZVAL   =   3.00  5.00
  Atomic Wigner-Seitz radii
   RWIGS  =  -1.00 -1.00
  virtual crystal weights 
   VCA    =   1.00  1.00
   NELECT =      16.0000    total number of electrons
   NUPDOWN=      -1.0000    fix difference up-down

 DOS related values:
   EMIN   =  10.00;   EMAX   =-10.00  energy-range for DOS
   EFERMI =   0.00
   ISMEAR =     0;   SIGMA  =   0.05  broadening in eV -4-tet -1-fermi 0-gaus

 Electronic relaxation 2 (details)
   IALGO  =     38    algorithm
   LDIAG  =      T    sub-space diagonalisation (order eigenvalues)
   LSUBROT=      F    optimize rotation matrix (better conditioning)
   TURBO    =      0    0=normal 1=particle mesh
   IRESTART =      0    0=no restart 2=restart with 2 vectors
   NREBOOT  =      0    no. of reboots
   NMIN     =      0    reboot dimension
   EREF     =   0.00    reference energy to select bands
   IMIX   =      4    mixing-type and parameters
     AMIX     =   0.40;   BMIX     =  1.00
     AMIX_MAG =   1.60;   BMIX_MAG =  1.00
     AMIN     =   0.10
     WC   =   100.;   INIMIX=   1;  MIXPRE=   1;  MAXMIX= -45

 Intra band minimization:
   WEIMIN = 0.0000     energy-eigenvalue tresh-hold
   EBREAK =  0.13E-05  absolut break condition
   DEPER  =   0.30     relativ break condition  

   TIME   =   0.40     timestep for ELM

  volume/ion in A,a.u.               =      10.29        69.42
  Fermi-wavevector in a.u.,A,eV,Ry     =   1.194923  2.258077 19.426956  1.427841
  Thomas-Fermi vector in A             =   2.330901
 
 Write flags
   LWAVE        =      T    write WAVECAR
   LDOWNSAMPLE  =      F    k-point downsampling of WAVECAR
   LCHARG       =      T    write CHGCAR
   LVTOT        =      F    write LOCPOT, total local potential
   LVHAR        =      F    write LOCPOT, Hartree potential only
   LELF         =      F    write electronic localiz. function (ELF)
   LORBIT       =     11    0 simple, 1 ext, 2 COOP (PROOUT), +10 PAW based schemes


 Dipole corrections
   LMONO  =      F    monopole corrections only (constant potential shift)
   LDIPOL =      F    correct potential (dipole corrections)
   IDIPOL =      0    1-x, 2-y, 3-z, 4-all directions 
   EPSILON=  1.0000000 bulk dielectric constant

 Exchange correlation treatment:
   GGA     =    --    GGA type
   LEXCH   =     8    internal setting for exchange type
   VOSKOWN=      0    Vosko Wilk Nusair interpolation
   LHFCALC =     F    Hartree Fock is set to
   LHFONE  =     F    Hartree Fock one center treatment
   AEXX    =    0.0000 exact exchange contribution

 Linear response parameters
   LEPSILON=     F    determine dielectric tensor
   LRPA    =     F    only Hartree local field effects (RPA)
   LNABLA  =     F    use nabla operator in PAW spheres
   LVEL    =     F    velocity operator in full k-point grid
   LINTERFAST=   F  fast interpolation
   KINTER  =     0    interpolate to denser k-point grid
   CSHIFT  =0.1000    complex shift for real part using Kramers Kronig
   OMEGAMAX=  -1.0    maximum frequency
   DEG_THRESHOLD= 0.2000000E-02 threshold for treating states as degnerate
   RTIME   =   -0.100 relaxation time in fs
  (WPLASMAI=    0.000 imaginary part of plasma frequency in eV, 0.658/RTIME)
   DFIELD  = 0.0000000 0.0000000 0.0000000 field for delta impulse in time
 
 Orbital magnetization related:
   ORBITALMAG=     F  switch on orbital magnetization
   LCHIMAG   =     F  perturbation theory with respect to B field
   DQ        =  0.001000  dq finite difference perturbation B field
   LLRAUG    =     F  two centre corrections for induced B field



--------------------------------------------------------------------------------------------------------


 Static calculation
 charge density and potential will be updated during run
 non-spin polarized calculation
 Variant of blocked Davidson
 Davidson routine will perform the subspace rotation
 perform sub-space diagonalisation
    after iterative eigenvector-optimisation
 modified Broyden-mixing scheme, WC =      100.0
 initial mixing is a Kerker type mixing with AMIX =  0.4000 and BMIX =      1.0000
 Hartree-type preconditioning will be used
 using additional bands           12
 reciprocal scheme for non local part
 use partial core corrections
 calculate Harris-corrections to forces 
   (improved forces if not selfconsistent)
 use gradient corrections 
 use of overlap-Matrix (Vanderbilt PP)
 Gauss-broadening in eV      SIGMA  =   0.05


--------------------------------------------------------------------------------------------------------


  energy-cutoff  :      500.00
  volume of cell :       41.15
      direct lattice vectors                 reciprocal lattice vectors
     1.256237318 -2.175866861  0.000000000     0.398013968 -0.229793472  0.000000000
     1.256237318  2.175866861  0.000000000     0.398013968  0.229793472  0.000000000
     0.000000000  0.000000000  7.526459174     0.000000000  0.000000000  0.132864602

  length of vectors
     2.512474636  2.512474636  7.526459174     0.459586943  0.459586943  0.132864602


 
 old parameters found on file WAVECAR:
  energy-cutoff  :      500.00
  volume of cell :       41.15
      direct lattice vectors                 reciprocal lattice vectors
     1.256237318 -2.175866861  0.000000000     0.398013968 -0.229793472  0.000000000
     1.256237318  2.175866861  0.000000000     0.398013968  0.229793472  0.000000000
     0.000000000  0.000000000  7.526459174     0.000000000  0.000000000  0.132864602

  length of vectors

 
 k-points in units of 2pi/SCALE and weight: A                                       
   0.00000000  0.00000000  0.00000000       0.009
   0.06633566 -0.03829891  0.00000000       0.056
   0.13267132 -0.07659782  0.00000000       0.056
   0.19900698 -0.11489674  0.00000000       0.028
   0.13267132  0.00000000  0.00000000       0.056
   0.19900698 -0.03829891  0.00000000       0.111
   0.26534265  0.00000000  0.00000000       0.019
   0.00000000  0.00000000  0.04428820       0.019
   0.06633566 -0.03829891  0.04428820       0.111
   0.13267132 -0.07659782  0.04428820       0.111
   0.19900698 -0.11489674  0.04428820       0.056
   0.13267132  0.00000000  0.04428820       0.111
   0.19900698 -0.03829891  0.04428820       0.222
   0.26534265  0.00000000  0.04428820       0.037
 
 k-points in reciprocal lattice and weights: A                                       
   0.00000000  0.00000000  0.00000000       0.009
   0.16666667  0.00000000  0.00000000       0.056
   0.33333333  0.00000000  0.00000000       0.056
   0.50000000  0.00000000  0.00000000       0.028
   0.16666667  0.16666667  0.00000000       0.056
   0.33333333  0.16666667  0.00000000       0.111
   0.33333333  0.33333333  0.00000000       0.019
   0.00000000  0.00000000  0.33333333       0.019
   0.16666667  0.00000000  0.33333333       0.111
   0.33333333  0.00000000  0.33333333       0.111
   0.50000000  0.00000000  0.33333333       0.056
   0.16666667  0.16666667  0.33333333       0.111
   0.33333333  0.16666667  0.33333333       0.222
   0.33333333  0.33333333  0.33333333       0.037
 
 position of ions in fractional coordinates (direct lattice) 
   0.00000000  0.00000000  0.00000000
   0.33333333  0.66666667  0.50000000
   0.33333333  0.66666667  0.00000000
   0.66666667  0.33333333  0.50000000
 
 position of ions in cartesian coordinates  (Angst):
   0.00000000  0.00000000  0.00000000
   1.25623732  0.72528895  3.76322959
   1.25623732  0.72528895  0.00000000
   1.25623732 -0.72528895  3.76322959
 


--------------------------------------------------------------------------------------------------------


 k-point  1 :   0.0000 0.0000 0.0000  plane waves:    1041
 k-point  2 :   0.1667 0.0000 0.0000  plane waves:    1066
 k-point  3 :   0.3333 0.0000 0.0000  plane waves:    1056
 k-point  4 :   0.5000 0.0000 0.0000  plane waves:    1032
 k-point  5 :   0.1667 0.1667 0.0000  plane waves:    1053
 k-point  6 :   0.3333 0.1667 0.0000  plane waves:    1035
 k-point  7 :   0.3333 0.3333 0.0000  plane waves:    1038
 k-point  8 :   0.0000 0.0000 0.3333  plane waves:    1054
 k-point  9 :   0.1667 0.0000 0.3333  plane waves:    1056
 k-point 10 :   0.3333 0.0000 0.3333  plane waves:    1051
 k-point 11 :   0.5000 0.0000 0.3333  plane waves:    1038
 k-point 12 :   0.1667 0.1667 0.3333  plane waves:    1051
 k-point 13 :   0.3333 0.1667 0.3333  plane waves:    1038
 k-point 14 :   0.3333 0.3333 0.3333  plane waves:    1032

 maximum and minimum number of plane-waves per node :      1066     1032

 maximum number of plane-waves:      1066
 maximum index in each direction: 
   IXMAX=    4   IYMAX=    4   IZMAX=   13
   IXMIN=   -5   IYMIN=   -4   IZMIN=  -14


 serial   3D FFT for wavefunctions
 parallel 3D FFT for charge:
    minimum data exchange during FFTs selected (reduces bandwidth)


 total amount of memory used by VASP MPI-rank0    33427. kBytes
=======================================================================

   base      :      30000. kBytes
   nonl-proj :       2004. kBytes
   fftplans  :        561. kBytes
   grid      :        600. kBytes
   one-center:         12. kBytes
   wavefun   :        250. kBytes
 
     INWAV:  cpu time    0.0453: real time    0.0458
 Broyden mixing: mesh for mixing (old mesh)
   NGX =  9   NGY =  9   NGZ = 27
  (NGX  = 28   NGY  = 28   NGZ  = 84)
  gives a total of   2187 points

 charge density for first step will be calculated from the start-wavefunctions


--------------------------------------------------------------------------------------------------------


 Maximum index for augmentation-charges         1246 (set IRDMAX)


--------------------------------------------------------------------------------------------------------


 initial charge from wavefunction
 First call to EWALD:  gamma=   0.513
 Maximum number of real-space cells 4x 4x 2
 Maximum number of reciprocal cells 2x 2x 5

    FEWALD:  cpu time    0.0016: real time    0.0016


--------------------------------------- Iteration      1(   1)  ---------------------------------------


    POTLOK:  cpu time    0.0029: real time    0.0041
    SETDIJ:  cpu time    0.0025: real time    0.0025
     EDDAV:  cpu time    0.0706: real time    0.0711
       DOS:  cpu time    0.0004: real time    0.0004
    CHARGE:  cpu time    0.0026: real time    0.0026
    MIXING:  cpu time    0.0004: real time    0.0004
    --------------------------------------------
      LOOP:  cpu time    0.0794: real time    0.0812

 eigenvalue-minimisations  :   640
 total energy-change (2. order) :-0.3522064E+02  (-0.2873492E+02)
 number of electron      15.9999999 magnetization 
 augmentation part        0.4379214 magnetization 

 Broyden mixing:
  rms(total) = 0.12959E+01    rms(broyden)= 0.12958E+01
  rms(prec ) = 0.13349E+01
  weight for this iteration     100.00

 Free energy of the ion-electron system (eV)
  ---------------------------------------------------
  alpha Z        PSCENC =        34.59384069
  Ewald energy   TEWEN  =      -421.88703305
  -Hartree energ DENC   =      -288.37155583
  -exchange      EXHF   =         0.00000000
  -V(xc)+E(xc)   XCENC  =        57.12364393
  PAW double counting   =      2929.46317662    -2930.99168010
  entropy T*S    EENTRO =        -0.00000000
  eigenvalues    EBANDS =       -86.55896107
  atomic energy  EATOM  =       671.40793249
  Solvation  Ediel_sol  =         0.00000000
  ---------------------------------------------------
  free energy    TOTEN  =       -35.22063632 eV

  energy without entropy =      -35.22063632  energy(sigma->0) =      -35.22063632


--------------------------------------------------------------------------------------------------------




--------------------------------------- Iteration      1(   2)  ---------------------------------------


    POTLOK:  cpu time    0.0022: real time    0.0024
    SETDIJ:  cpu time    0.0024: real time    0.0024
     EDDAV:  cpu time    0.1225: real time    0.1234
       DOS:  cpu time    0.0002: real time    0.0002
    CHARGE:  cpu time    0.0033: real time    0.0034
    MIXING:  cpu time    0.0002: real time    0.0002
    --------------------------------------------
      LOOP:  cpu time    0.1308: real time    0.1321

 eigenvalue-minimisations  :   660
 total energy-change (2. order) : 0.2700395E-01  (-0.2825105E+00)
 number of electron      15.9999999 magnetization 
 augmentation part        0.4703154 magnetization 

 Broyden mixing:
  rms(total) = 0.93329E+00    rms(broyden)= 0.93329E+00
  rms(prec ) = 0.93492E+00
  weight for this iteration     100.00

 eigenvalues of (default mixing * dielectric matrix)
  average eigenvalue GAMMA=   2.7281
  2.7281

 Free energy of the ion-electron system (eV)
  ---------------------------------------------------
  alpha Z        PSCENC =        34.59384069
  Ewald energy   TEWEN  =      -421.88703305
  -Hartree energ DENC   =      -282.19447452
  -exchange      EXHF   =         0.00000000
  -V(xc)+E(xc)   XCENC  =        56.70918920
  PAW double counting   =      2513.08000166    -2514.54735761
  entropy T*S    EENTRO =        -0.00000000
  eigenvalues    EBANDS =       -92.35573123
  atomic energy  EATOM  =       671.40793249
  Solvation  Ediel_sol  =         0.00000000
  ---------------------------------------------------
  free energy    TOTEN  =       -35.19363237 eV

  energy without entropy =      -35.19363237  energy(sigma->0) =      -35.19363237


--------------------------------------------------------------------------------------------------------




--------------------------------------- Iteration      1(   3)  ---------------------------------------


    POTLOK:  cpu time    0.0022: real time    0.0024
    SETDIJ:  cpu time    0.0023: real time    0.0023
     EDDAV:  cpu time    0.1927: real time    0.1940
       DOS:  cpu time    0.0002: real time    0.0002
    CHARGE:  cpu time    0.0035: real time    0.0035
    MIXING:  cpu time    0.0002: real time    0.0002
    --------------------------------------------
      LOOP:  cpu time    0.2010: real time    0.2026

 eigenvalue-minimisations  :   840
 total energy-change (2. order) :-0.7022133E-03  (-0.3874400E-02)
 number of electron      15.9999999 magnetization 
 augmentation part        0.4724789 magnetization 

 Broyden mixing:
  rms(total) = 0.14345E+00    rms(broyden)= 0.14344E+00
  rms(prec ) = 0.14461E+00
  weight for this iteration     100.00

 eigenvalues of (default mixing * dielectric matrix)
  average eigenvalue GAMMA=   1.7691
  1.0549  2.4833

 Free energy of the ion-electron system (eV)
  ---------------------------------------------------
  alpha Z        PSCENC =        34.59384069
  Ewald energy   TEWEN  =      -421.88703305
  -Hartree energ DENC   =      -281.54498758
  -exchange      EXHF   =         0.00000000
  -V(xc)+E(xc)   XCENC  =        56.67098335
  PAW double counting   =      1937.60873954    -1939.07163207
  entropy T*S    EENTRO =        -0.00000000
  eigenvalues    EBANDS =       -92.97217796
  atomic energy  EATOM  =       671.40793249
  Solvation  Ediel_sol  =         0.00000000
  ---------------------------------------------------
  free energy    TOTEN  =       -35.19433458 eV

  energy without entropy =      -35.19433458  energy(sigma->0) =      -35.19433458


--------------------------------------------------------------------------------------------------------




--------------------------------------- Iteration      1(   4)  ---------------------------------------


    POTLOK:  cpu time    0.0021: real time    0.0034
    SETDIJ:  cpu time    0.0023: real time    0.0023
     EDDAV:  cpu time    0.1374: real time    0.1383
       DOS:  cpu time    0.0002: real time    0.0002
    CHARGE:  cpu time    0.0033: real time    0.0033
    MIXING:  cpu time    0.0002: real time    0.0002
    --------------------------------------------
      LOOP:  cpu time    0.1455: real time    0.1477

 eigenvalue-minimisations  :   700
 total energy-change (2. order) : 0.4398038E-03  (-0.3701425E-03)
 number of electron      15.9999999 magnetization 
 augmentation part        0.4704195 magnetization 

 Broyden mixing:
  rms(total) = 0.10155E-01    rms(broyden)= 0.10155E-01
  rms(prec ) = 0.10976E-01
  weight for this iteration     100.00

 eigenvalues of (default mixing * dielectric matrix)
  average eigenvalue GAMMA=   1.7273
  2.5874  1.0486  1.5460

 Free energy of the ion-electron system (eV)
  ---------------------------------------------------
  alpha Z        PSCENC =        34.59384069
  Ewald energy   TEWEN  =      -421.88703305
  -Hartree energ DENC   =      -281.72379831
  -exchange      EXHF   =         0.00000000
  -V(xc)+E(xc)   XCENC  =        56.68724380
  PAW double counting   =      1855.22453967    -1856.68818308
  entropy T*S    EENTRO =        -0.00000000
  eigenvalues    EBANDS =       -92.80843699
  atomic energy  EATOM  =       671.40793249
  Solvation  Ediel_sol  =         0.00000000
  ---------------------------------------------------
  free energy    TOTEN  =       -35.19389478 eV

  energy without entropy =      -35.19389478  energy(sigma->0) =      -35.19389478


--------------------------------------------------------------------------------------------------------




--------------------------------------- Iteration      1(   5)  ---------------------------------------


    POTLOK:  cpu time    0.0021: real time    0.0023
    SETDIJ:  cpu time    0.0023: real time    0.0023
     EDDAV:  cpu time    0.1405: real time    0.1415
       DOS:  cpu time    0.0002: real time    0.0002
    --------------------------------------------
      LOOP:  cpu time    0.1450: real time    0.1462

 eigenvalue-minimisations  :   780
 total energy-change (2. order) :-0.1437211E-04  (-0.1157743E-04)
 number of electron      15.9999999 magnetization 
 augmentation part        0.4704195 magnetization 

 Free energy of the ion-electron system (eV)
  ---------------------------------------------------
  alpha Z        PSCENC =        34.59384069
  Ewald energy   TEWEN  =      -421.88703305
  -Hartree energ DENC   =      -281.58465169
  -exchange      EXHF   =         0.00000000
  -V(xc)+E(xc)   XCENC  =        56.68028700
  PAW double counting   =      1846.34975398    -1847.81083662
  entropy T*S    EENTRO =        -0.00000000
  eigenvalues    EBANDS =       -92.94320195
  atomic energy  EATOM  =       671.40793249
  Solvation  Ediel_sol  =         0.00000000
  ---------------------------------------------------
  free energy    TOTEN  =       -35.19390915 eV

  energy without entropy =      -35.19390915  energy(sigma->0) =      -35.19390915


--------------------------------------------------------------------------------------------------------




 average (electrostatic) potential at core
  the test charge radii are     0.7672  0.7089
  (the norm of the test charge is              1.0000)
       1 -30.0257       2 -29.9930       3 -65.9305       4 -65.8925
 
 
 
 E-fermi :   1.5747     XC(G=0):  -9.2291     alpha+bet : -9.6182


 k-point     1 :       0.0000    0.0000    0.0000
  band No.  band energies     occupation 
      1     -16.3633      2.00000
      2     -16.2525      2.00000
      3      -4.4290      2.00000
      4      -3.3229      2.00000
      5      -0.0606      2.00000
      6      -0.0606      2.00000
      7      -0.0254      2.00000
      8      -0.0253      2.00000
      9       5.9617      0.00000
     10      10.1208      0.00000
     11      12.4693      0.00000
     12      12.7974      0.00000
     13      12.7974      0.00000
     14      12.8389      0.00000
     15      12.8389      0.00000
     16      14.0049      0.00000
     17      15.3008      0.00000
     18      16.1788      0.00000
     19      19.5846      0.00000
     20      25.6337      0.00000

 k-point     2 :       0.1667    0.0000    0.0000
  band No.  band energies     occupation 
      1     -15.8363      2.00000
      2     -15.7329      2.00000
      3      -3.7032      2.00000
      4      -2.6483      2.00000
      5      -2.0251      2.00000
      6      -1.9858      2.00000
      7      -0.9399      2.00000
      8      -0.9031      2.00000
      9       6.8612      0.00000
     10      10.1101      0.00000
     11      12.1104      0.00000
     12      12.3605      0.00000
     13      12.5653      0.00000
     14      14.1975      0.00000
     15      14.9751      0.00000
     16      14.9971      0.00000
     17      15.0188      0.00000
     18      16.8377      0.00000
     19      20.5786      0.00000
     20      23.3017      0.00000

 k-point     3 :       0.3333    0.0000    0.0000
  band No.  band energies     occupation 
      1     -14.4202      2.00000
      2     -14.3398      2.00000
      3      -5.5754      2.00000
      4      -5.5239      2.00000
      5      -2.2831      2.00000
      6      -2.2448      2.00000
      7      -1.6858      2.00000
      8      -0.8363      2.00000
      9       8.1639      0.00000
     10       8.7353      0.00000
     11       9.0695      0.00000
     12      11.4309      0.00000
     13      12.3106      0.00000
     14      14.6902      0.00000
     15      16.5860      0.00000
     16      18.9453      0.00000
     17      19.4867      0.00000
     18      19.7208      0.00000
     19      19.7945      0.00000
     20      20.8845      0.00000

 k-point     4 :       0.5000    0.0000    0.0000
  band No.  band energies     occupation 
      1     -13.2715      2.00000
      2     -13.2286      2.00000
      3      -7.5762      2.00000
      4      -7.5158      2.00000
      5      -2.8312      2.00000
      6      -2.7923      2.00000
      7       0.2350      2.00000
      8       0.5283      2.00000
      9       5.7901      0.00000
     10       6.4487      0.00000
     11      10.8305      0.00000
     12      10.9994      0.00000
     13      13.6888      0.00000
     14      14.3030      0.00000
     15      15.9822      0.00000
     16      17.4862      0.00000
     17      19.7093      0.00000
     18      21.5112      0.00000
     19      22.4226      0.00000
     20      22.8383      0.00000

 k-point     5 :       0.1667    0.1667    0.0000
  band No.  band energies     occupation 
      1     -14.8516      2.00000
      2     -14.7629      2.00000
      3      -4.2182      2.00000
      4      -4.1823      2.00000
      5      -2.6214      2.00000
      6      -2.5854      2.00000
      7      -2.3189      2.00000
      8      -1.3864      2.00000
      9       8.5127      0.00000
     10       9.1493      0.00000
     11       9.8804      0.00000
     12      13.5348      0.00000
     13      13.6781      0.00000
     14      14.1159      0.00000
     15      14.3851      0.00000
     16      15.7978      0.00000
     17      18.4849      0.00000
     18      19.3132      0.00000
     19      20.1863      0.00000
     20      21.6586      0.00000

 k-point     6 :       0.3333    0.1667    0.0000
  band No.  band energies     occupation 
      1     -13.3683      2.00000
      2     -13.3128      2.00000
      3      -6.7504      2.00000
      4      -6.6984      2.00000
      5      -4.0066      2.00000
      6      -3.9638      2.00000
      7      -0.0426      2.00000
      8       0.5051      2.00000
      9       6.5659      0.00000
     10       6.9730      0.00000
     11      11.3940      0.00000
     12      13.2188      0.00000
     13      14.1634      0.00000
     14      14.7883      0.00000
     15      15.9474      0.00000
     16      16.1402      0.00000
     17      18.3965      0.00000
     18      20.1949      0.00000
     19      20.2000      0.00000
     20      21.1730      0.00000

 k-point     7 :       0.3333    0.3333    0.0000
  band No.  band energies     occupation 
      1     -12.6939      2.00000
      2     -12.6588      2.00000
      3      -6.5632      2.00000
      4      -6.5334      2.00000
      5      -5.8645      2.00000
      6      -5.8330      2.00000
      7       1.2579      2.00000
      8       1.3062      2.00000
      9       5.8911      0.00000
     10       5.9992      0.00000
     11      13.7791      0.00000
     12      14.1143      0.00000
     13      14.2376      0.00000
     14      14.3626      0.00000
     15      15.5748      0.00000
     16      17.6902      0.00000
     17      19.0413      0.00000
     18      19.2301      0.00000
     19      19.7306      0.00000
     20      20.3241      0.00000

 k-point     8 :       0.0000    0.0000    0.3333
  band No.  band energies     occupation 
      1     -16.3397      2.00000
      2     -16.2772      2.00000
      3      -4.1843      2.00000
      4      -3.6359      2.00000
      5      -0.0607      2.00000
      6      -0.0607      2.00000
      7      -0.0258      2.00000
      8      -0.0257      2.00000
      9       6.7852      0.00000
     10       8.7035      0.00000
     11      12.8007      0.00000
     12      12.8007      0.00000
     13      12.8350      0.00000
     14      12.8350      0.00000
     15      13.1811      0.00000
     16      13.8008      0.00000
     17      15.4499      0.00000
     18      15.8409      0.00000
     19      21.1037      0.00000
     20      24.0067      0.00000

 k-point     9 :       0.1667    0.0000    0.3333
  band No.  band energies     occupation 
      1     -15.8146      2.00000
      2     -15.7553      2.00000
      3      -3.4707      2.00000
      4      -2.9492      2.00000
      5      -2.0185      2.00000
      6      -1.9827      2.00000
      7      -0.9390      2.00000
      8      -0.9038      2.00000
      9       7.6054      0.00000
     10       9.2128      0.00000
     11      12.1856      0.00000
     12      12.3085      0.00000
     13      12.7165      0.00000
     14      13.2376      0.00000
     15      14.9792      0.00000
     16      15.0144      0.00000
     17      16.0794      0.00000
     18      16.6908      0.00000
     19      21.5212      0.00000
     20      23.0098      0.00000

 k-point    10 :       0.3333    0.0000    0.3333
  band No.  band energies     occupation 
      1     -14.4051      2.00000
      2     -14.3553      2.00000
      3      -5.5697      2.00000
      4      -5.5314      2.00000
      5      -2.2815      2.00000
      6      -2.2462      2.00000
      7      -1.4893      2.00000
      8      -1.0654      2.00000
      9       8.1603      0.00000
     10       8.3545      0.00000
     11      10.0974      0.00000
     12      11.2174      0.00000
     13      12.4259      0.00000
     14      13.3150      0.00000
     15      17.5835      0.00000
     16      18.6351      0.00000
     17      19.6358      0.00000
     18      19.7326      0.00000
     19      19.7784      0.00000
     20      21.0010      0.00000

 k-point    11 :       0.5000    0.0000    0.3333
  band No.  band energies     occupation 
      1     -13.2686      2.00000
      2     -13.2316      2.00000
      3      -7.5672      2.00000
      4      -7.5262      2.00000
      5      -2.8295      2.00000
      6      -2.7941      2.00000
      7       0.3139      2.00000
      8       0.4646      2.00000
      9       5.8873      0.00000
     10       6.2112      0.00000
     11      10.9645      0.00000
     12      11.0450      0.00000
     13      14.0985      0.00000
     14      14.4857      0.00000
     15      15.7528      0.00000
     16      16.7345      0.00000
     17      19.7024      0.00000
     18      21.1427      0.00000
     19      22.8396      0.00000
     20      22.9006      0.00000

 k-point    12 :       0.1667    0.1667    0.3333
  band No.  band energies     occupation 
      1     -14.8340      2.00000
      2     -14.7809      2.00000
      3      -4.2188      2.00000
      4      -4.1852      2.00000
      5      -2.6211      2.00000
      6      -2.5872      2.00000
      7      -2.1037      2.00000
      8      -1.6399      2.00000
      9       8.7781      0.00000
     10       9.0589      0.00000
     11      10.4403      0.00000
     12      12.1725      0.00000
     13      13.5942      0.00000
     14      13.6626      0.00000
     15      15.3827      0.00000
     16      15.7210      0.00000
     17      18.8465      0.00000
     18      19.4031      0.00000
     19      20.0338      0.00000
     20      21.2352      0.00000

 k-point    13 :       0.3333    0.1667    0.3333
  band No.  band energies     occupation 
      1     -13.3610      2.00000
      2     -13.3202      2.00000
      3      -6.7441      2.00000
      4      -6.7058      2.00000
      5      -4.0034      2.00000
      6      -3.9674      2.00000
      7       0.0914      2.00000
      8       0.3671      2.00000
      9       6.6255      0.00000
     10       6.8251      0.00000
     11      11.9737      0.00000
     12      12.9367      0.00000
     13      14.1425      0.00000
     14      14.3471      0.00000
     15      15.9105      0.00000
     16      16.8771      0.00000
     17      17.9014      0.00000
     18      19.1268      0.00000
     19      20.9186      0.00000
     20      21.6689      0.00000

 k-point    14 :       0.3333    0.3333    0.3333
  band No.  band energies     occupation 
      1     -12.6938      2.00000
      2     -12.6587      2.00000
      3      -6.5635      2.00000
      4      -6.5321      2.00000
      5      -5.8663      2.00000
      6      -5.8337      2.00000
      7       1.2699      2.00000
      8       1.3097      2.00000
      9       5.9103      0.00000
     10       5.9557      0.00000
     11      13.1245      0.00000
     12      13.4751      0.00000
     13      14.6648      0.00000
     14      15.7870      0.00000
     15      16.1158      0.00000
     16      17.2028      0.00000
     17      18.4582      0.00000
     18      19.2153      0.00000
     19      19.4307      0.00000
     20      20.6829      0.00000


--------------------------------------------------------------------------------------------------------


 soft charge-density along one line, spin component           1
         0         1         2         3         4         5         6         7         8         9
 total charge-density along one line
 
 pseudopotential strength for first ion, spin component:           1
  6.448   9.818  -0.000  -0.000  -0.000  -0.000  -0.000  -0.000
  9.818  14.944  -0.000  -0.000  -0.000  -0.000  -0.000  -0.000
 -0.000  -0.000  -2.179  -0.000  -0.000  -3.706  -0.000  -0.000
 -0.000  -0.000  -0.000  -2.177  -0.000  -0.000  -3.699  -0.000
 -0.000  -0.000  -0.000  -0.000  -2.179  -0.000  -0.000  -3.706
 -0.000  -0.000  -3.706  -0.000  -0.000  -6.105  -0.000  -0.000
 -0.000  -0.000  -0.000  -3.699  -0.000  -0.000  -6.087  -0.000
 -0.000  -0.000  -0.000  -0.000  -3.706  -0.000  -0.000  -6.105
 total augmentation occupancy for first ion, spin component:           1
  4.195  -1.222   0.000   0.000   0.000   0.000   0.000   0.000
 -1.222   0.385  -0.000   0.000   0.000   0.000   0.000   0.000
 -0.000  -0.000   4.891   0.000   0.000  -1.471   0.000   0.000
  0.000   0.000  -0.000   1.588   0.000   0.000  -0.387   0.000
  0.000   0.000   0.000   0.000   4.891   0.000   0.000  -1.471
  0.000   0.000  -1.471   0.000   0.000   0.458   0.000   0.000
  0.000   0.000   0.000  -0.387   0.000   0.000   0.096   0.000
  0.000   0.000   0.000   0.000  -1.471   0.000   0.000   0.458


------------------------ aborting loop because EDIFF is reached ----------------------------------------


 


 total charge     
 
# of ion       s       p       d       tot
------------------------------------------
    1        0.740   1.413   0.000   2.153
    2        0.740   1.413   0.000   2.153
    3        1.225   2.786   0.000   4.011
    4        1.225   2.786   0.000   4.011
--------------------------------------------------
tot          3.930   8.399   0.000  12.329
 
    CHARGE:  cpu time    0.0026: real time    0.0027
    FORLOC:  cpu time    0.0001: real time    0.0001
    FORNL :  cpu time    0.0072: real time    0.0073
    STRESS:  cpu time    0.0479: real time    0.0483
    FORCOR:  cpu time    0.0018: real time    0.0019
    FORHAR:  cpu time    0.0006: real time    0.0006
    MIXING:  cpu time    0.0001: real time    0.0001
    OFIELD:  cpu time    0.0000: real time    0.0001

  FORCE on cell =-STRESS in cart. coord.  units (eV):
  Direction    XX          YY          ZZ          XY          YZ          ZX
  --------------------------------------------------------------------------------------
  Alpha Z    34.59384    34.59384    34.59384
  Ewald     121.29472   121.29472  -664.47690    -0.00000    -0.00000    -0.00000
  Hartree   223.89719   223.89719  -166.29250     0.00000     0.00000     0.00000
  E(xc)     -63.11555   -63.11555   -64.94658     0.00000     0.00000     0.00000
  Local    -544.53883  -544.53809   600.42437     0.00000     0.00000    -0.00010
  n-local   -30.82767   -29.36716   -29.94169     0.15376    -0.00510     0.01603
  augment     2.17030     2.17017     2.52287     0.00000    -0.00000    -0.00000
  Kinetic   258.27686   253.36781   288.15030     2.32428     0.05217    -0.15668
  Fock        0.00000     0.00000     0.00000     0.00000     0.00000     0.00000
  -------------------------------------------------------------------------------------
  Total       0.02689     0.02689     0.03370     0.00000    -0.00000     0.00000
  in kB       1.04710     1.04710     1.31244     0.00000    -0.00000     0.00000
  external pressure =        1.14 kB  Pullay stress =        0.00 kB


 VOLUME and BASIS-vectors are now :
 -----------------------------------------------------------------------------
  energy-cutoff  :      500.00
  volume of cell :       41.15
      direct lattice vectors                 reciprocal lattice vectors
     1.256237318 -2.175866861  0.000000000     0.398013968 -0.229793472  0.000000000
     1.256237318  2.175866861  0.000000000     0.398013968  0.229793472  0.000000000
     0.000000000  0.000000000  7.526459174     0.000000000  0.000000000  0.132864602

  length of vectors
     2.512474636  2.512474636  7.526459174     0.459586943  0.459586943  0.132864602


 FORCES acting on ions
    electron-ion (+dipol)            ewald-force                    non-local-force                 convergence-correction
 -----------------------------------------------------------------------------------------------
   0.773E-13 -.123E-04 0.467E-14   0.466E-14 -.651E-11 -.139E-13   0.000E+00 -.555E-16 0.000E+00   0.234E-14 0.155E-06 0.364E-13
   0.114E-12 -.161E-04 -.245E-12   0.347E-14 0.130E-10 0.139E-13   0.000E+00 0.000E+00 0.000E+00   -.359E-15 0.149E-06 -.356E-13
   -.748E-14 -.698E-06 -.818E-12   -.352E-14 0.651E-11 -.231E-13   0.104E-16 -.347E-16 0.000E+00   -.229E-14 0.261E-06 0.731E-13
   0.350E-12 -.277E-05 -.358E-11   -.271E-14 -.130E-10 0.231E-13   -.104E-16 0.694E-17 0.000E+00   0.120E-13 0.278E-06 -.700E-13
 -----------------------------------------------------------------------------------------------
   0.534E-12 -.318E-04 -.464E-11   0.191E-14 0.202E-14 0.000E+00   0.000E+00 -.833E-16 0.000E+00   0.117E-13 0.842E-06 0.391E-14
 
 
 POSITION                                       TOTAL-FORCE (eV/Angst)
 -----------------------------------------------------------------------------------
      0.00000      0.00000      0.00000         0.000000     -0.000000      0.000000
      1.25624      0.72529      3.76323         0.000000      0.000000      0.000000
      1.25624      0.72529      0.00000        -0.000000     -0.000000      0.000000
      1.25624     -0.72529      3.76323         0.000000     -0.000000      0.000000
 -----------------------------------------------------------------------------------
    total drift:                                0.000000     -0.000031     -0.000000


--------------------------------------------------------------------------------------------------------



  FREE ENERGIE OF THE ION-ELECTRON SYSTEM (eV)
  ---------------------------------------------------
  free  energy   TOTEN  =       -35.19390915 eV

  energy  without entropy=      -35.19390915  energy(sigma->0) =      -35.19390915
 


--------------------------------------------------------------------------------------------------------


    POTLOK:  cpu time    0.0046: real time    0.0046


--------------------------------------------------------------------------------------------------------


 writing wavefunctions
     LOOP+:  cpu time    0.8513: real time    0.8633
    4ORBIT:  cpu time    0.0000: real time    0.0000
 


 total charge     
 
# of ion       s       p       d       tot
------------------------------------------
    1        0.740   1.413   0.000   2.153
    2        0.740   1.413   0.000   2.153
    3        1.225   2.786   0.000   4.011
    4        1.225   2.786   0.000   4.011
--------------------------------------------------
tot          3.930   8.399   0.000  12.329
 

 total amount of memory used by VASP MPI-rank0    33427. kBytes
=======================================================================

   base      :      30000. kBytes
   nonl-proj :       2004. kBytes
   fftplans  :        561. kBytes
   grid      :        600. kBytes
   one-center:         12. kBytes
   wavefun   :        250. kBytes
 
  
  
 General timing and accounting informations for this job:
 ========================================================
  
                  Total CPU time used (sec):        1.336
                            User time (sec):        1.035
                          System time (sec):        0.301
                         Elapsed time (sec):        1.628
  
                   Maximum memory used (kb):       70356.
                   Average memory used (kb):           0.
  
                          Minor page faults:         9764
                          Major page faults:           18
                 Voluntary context switches:         3477
