 vasp.5.4.4.18Apr17-6-g9f103f2a35 (build May 10 2019 17:57:18) complex          
  
 executed on             LinuxIFC date 2024.07.15  18:29:58
 running on   20 total cores
 distrk:  each k-point on   20 cores,    1 groups
 distr:  one band on NCORES_PER_BAND=   1 cores,   20 groups


--------------------------------------------------------------------------------------------------------


 INCAR:
 POTCAR:    PAW_PBE B 06Sep2000                   
 POTCAR:    PAW_PBE N 08Apr2002                   

 ----------------------------------------------------------------------------- 
|                                                                             |
|           W    W    AA    RRRRR   N    N  II  N    N   GGGG   !!!           |
|           W    W   A  A   R    R  NN   N  II  NN   N  G    G  !!!           |
|           W    W  A    A  R    R  N N  N  II  N N  N  G       !!!           |
|           W WW W  AAAAAA  RRRRR   N  N N  II  N  N N  G  GGG   !            |
|           WW  WW  A    A  R   R   N   NN  II  N   NN  G    G                |
|           W    W  A    A  R    R  N    N  II  N    N   GGGG   !!!           |
|                                                                             |
|      For optimal performance we recommend to set                            |
|        NCORE= 4 - approx SQRT( number of cores)                             |
|      NCORE specifies how many cores store one orbital (NPAR=cpu/NCORE).     |
|      This setting can  greatly improve the performance of VASP for DFT.     |
|      The default,   NCORE=1            might be grossly inefficient         |
|      on modern multi-core architectures or massively parallel machines.     |
|      Do your own testing !!!!                                               |
|      Unfortunately you need to use the default for GW and RPA calculations. |
|      (for HF NCORE is supported but not extensively tested yet)             |
|                                                                             |
 ----------------------------------------------------------------------------- 

 POTCAR:    PAW_PBE B 06Sep2000                   
   SHA256 =  a32ced30f5ae56fd4d10b4325ff17eb3e4e38ee0f4288bc219fb012fddfa6e97 B/
   COPYR  = (c) Copyright 06Sep2000 Georg Kresse                                
   COPYR  = This file is part of the software VASP. Any use, copying, and all ot
   COPYR  = If you do not have a valid VASP license, you may not use, copy or di
   VRHFIN =B: s2p1                                                              
   LEXCH  = PE                                                                  
   EATOM  =    71.1703 eV,    5.2309 Ry                                         
                                                                                
   TITEL  = PAW_PBE B 06Sep2000                                                 
   LULTRA =        F    use ultrasoft PP ?                                      
   IUNSCR =        1    unscreen: 0-lin 1-nonlin 2-no                           
   RPACOR =    1.200    partial core radius                                     
   POMASS =   10.811; ZVAL   =    3.000    mass and valenz                      
   RCORE  =    1.700    outmost cutoff radius                                   
   RWIGS  =    1.710; RWIGS  =    0.905    wigner-seitz radius (au A)           
   ENMAX  =  318.614; ENMIN  =  238.960 eV                                      
   ICORE  =        2    local potential                                         
   LCOR   =        T    correct aug charges                                     
   LPAW   =        T    paw PP                                                  
   EAUG   =  535.514                                                            
   DEXC   =    0.000                                                            
   RMAX   =    1.732    core radius for proj-oper                               
   RAUG   =    1.300    factor for augmentation sphere                          
   RDEP   =    1.757    radius for radial grids                                 
   RDEPT  =    1.436    core radius for aug-charge                              
                                                                                
   Atomic configuration                                                         
    4 entries                                                                   
     n  l   j            E        occ.                                          
     1  0  0.50      -180.5896   2.0000                                         
     2  0  0.50        -9.4431   2.0000                                         
     2  1  0.50        -3.6068   1.0000                                         
     3  2  1.50        -4.0817   0.0000                                         
   Description                                                                  
     l       E           TYP  RCUT    TYP  RCUT                                 
     0     -9.4430752     23  1.500                                             
     0      0.8675899     23  1.500                                             
     1     -3.6067955     23  1.700                                             
     1      6.1086146     23  1.700                                             
     2     -4.0817478      7  1.700                                             
  local pseudopotential read in
  partial core-charges read in
  partial kinetic energy density read in
  atomic valenz-charges read in
  non local Contribution for L=           0  read in
    real space projection operators read in
  non local Contribution for L=           0  read in
    real space projection operators read in
  non local Contribution for L=           1  read in
    real space projection operators read in
  non local Contribution for L=           1  read in
    real space projection operators read in
    PAW grid and wavefunctions read in
 
   number of l-projection  operators is LMAX  =           4
   number of lm-projection operators is LMMAX =           8
 
 POTCAR:    PAW_PBE N 08Apr2002                   
   SHA256 =  e053789ff3a61a86a1b75d8a110fcc91f86041011e7b0817c7c99e4e8a6349d7 N/
   COPYR  = (c) Copyright 08Apr2002 Georg Kresse                                
   COPYR  = This file is part of the software VASP. Any use, copying, and all ot
   COPYR  = If you do not have a valid VASP license, you may not use, copy or di
   VRHFIN =N: s2p3                                                              
   LEXCH  = PE                                                                  
   EATOM  =   264.5486 eV,   19.4438 Ry                                         
                                                                                
   TITEL  = PAW_PBE N 08Apr2002                                                 
   LULTRA =        F    use ultrasoft PP ?                                      
   IUNSCR =        1    unscreen: 0-lin 1-nonlin 2-no                           
   RPACOR =    1.200    partial core radius                                     
   POMASS =   14.001; ZVAL   =    5.000    mass and valenz                      
   RCORE  =    1.500    outmost cutoff radius                                   
   RWIGS  =    1.400; RWIGS  =    0.741    wigner-seitz radius (au A)           
   ENMAX  =  400.000; ENMIN  =  300.000 eV                                      
   ICORE  =        2    local potential                                         
   LCOR   =        T    correct aug charges                                     
   LPAW   =        T    paw PP                                                  
   EAUG   =  627.112                                                            
   DEXC   =    0.000                                                            
   RMAX   =    1.529    core radius for proj-oper                               
   RAUG   =    1.300    factor for augmentation sphere                          
   RDEP   =    1.514    radius for radial grids                                 
   RDEPT  =    1.338    core radius for aug-charge                              
                                                                                
   Atomic configuration                                                         
    4 entries                                                                   
     n  l   j            E        occ.                                          
     1  0  0.50      -384.7179   2.0000                                         
     2  0  0.50       -18.5828   2.0000                                         
     2  1  0.50        -7.0898   3.0000                                         
     3  2  1.50        -6.8029   0.0000                                         
   Description                                                                  
     l       E           TYP  RCUT    TYP  RCUT                                 
     0    -18.5828119     23  1.200                                             
     0    -13.5018863     23  1.200                                             
     1     -7.0897853     23  1.500                                             
     1      9.5240782     23  1.500                                             
     2     -6.8029130      7  1.500                                             
  local pseudopotential read in
  partial core-charges read in
  partial kinetic energy density read in
  atomic valenz-charges read in
  non local Contribution for L=           0  read in
    real space projection operators read in
  non local Contribution for L=           0  read in
    real space projection operators read in
  non local Contribution for L=           1  read in
    real space projection operators read in
  non local Contribution for L=           1  read in
    real space projection operators read in
    PAW grid and wavefunctions read in
 
   number of l-projection  operators is LMAX  =           4
   number of lm-projection operators is LMMAX =           8
 
  PAW_PBE B 06Sep2000                   :
 energy of atom  1       EATOM=  -71.1703
 kinetic energy error for atom=    0.0012 (will be added to EATOM!!)
  PAW_PBE N 08Apr2002                   :
 energy of atom  2       EATOM= -264.5486
 kinetic energy error for atom=    0.0138 (will be added to EATOM!!)
 
 
 POSCAR: B2 N2                                   
  positions in direct lattice
  velocities in cartesian coordinates
 exchange correlation table for  LEXCH =        8
   RHO(1)=    0.500       N(1)  =     2000
   RHO(2)=  100.500       N(2)  =     4000
 


--------------------------------------------------------------------------------------------------------


 ion  position               nearest neighbor table
   1  0.000  0.000  0.000-   3 1.45   3 1.45   3 1.45
   2  0.333  0.667  0.500-   4 1.45   4 1.45   4 1.45
   3  0.333  0.667  0.000-   1 1.45   1 1.45   1 1.45
   4  0.667  0.333  0.500-   2 1.45   2 1.45   2 1.45
 
  LATTYP: Found a hexagonal cell.
 ALAT       =     2.5124746362
 C/A-ratio  =     2.9956358826
  
  Lattice vectors:
  
 A1 = (   1.2562373181,  -2.1758668613,   0.0000000000)
 A2 = (   1.2562373181,   2.1758668613,   0.0000000000)
 A3 = (   0.0000000000,   0.0000000000,   7.5264591742)


Analysis of symmetry for initial positions (statically):
=====================================================================
 Subroutine PRICEL returns:
 Original cell was already a primitive cell.
 

 Routine SETGRP: Setting up the symmetry group for a 
 hexagonal supercell.


 Subroutine GETGRP returns: Found 12 space group operations
 (whereof 12 operations were pure point group operations)
 out of a pool of 24 trial point group operations.


The static configuration has the point symmetry D_3h.


Analysis of symmetry for dynamics (positions and initial velocities):
=====================================================================
 Subroutine PRICEL returns:
 Original cell was already a primitive cell.
 

 Routine SETGRP: Setting up the symmetry group for a 
 hexagonal supercell.


 Subroutine GETGRP returns: Found 12 space group operations
 (whereof 12 operations were pure point group operations)
 out of a pool of 24 trial point group operations.


The dynamic configuration has the point symmetry D_3h.


 Subroutine INISYM returns: Found 12 space group operations
 (whereof 12 operations are pure point group operations),
 and found     1 'primitive' translations

 
 
 KPOINTS: A                                       

Automatic generation of k-mesh.
Space group operators:
 irot       det(A)        alpha          n_x          n_y          n_z        tau_x        tau_y        tau_z
    1     1.000000     0.000000     1.000000     0.000000     0.000000     0.000000     0.000000     0.000000
    2    -1.000000    60.000000     0.000000     0.000000    -1.000000     0.000000     0.000000     0.000000
    3     1.000000   120.000000     0.000000     0.000000    -1.000000     0.000000     0.000000     0.000000
    4    -1.000000   180.000000     0.000000     0.000000     1.000000     0.000000     0.000000     0.000000
    5     1.000000   120.000000     0.000000     0.000000     1.000000     0.000000     0.000000     0.000000
    6    -1.000000    60.000000     0.000000     0.000000     1.000000     0.000000     0.000000     0.000000
    7    -1.000000   180.000000     0.500000    -0.866025     0.000000     0.000000     0.000000     0.000000
    8     1.000000   180.000000     0.000000     1.000000     0.000000     0.000000     0.000000     0.000000
    9    -1.000000   180.000000    -0.500000    -0.866025     0.000000     0.000000     0.000000     0.000000
   10     1.000000   180.000000     0.866025     0.500000     0.000000     0.000000     0.000000     0.000000
   11    -1.000000   180.000000     1.000000     0.000000     0.000000     0.000000     0.000000     0.000000
   12     1.000000   180.000000     0.866025    -0.500000     0.000000     0.000000     0.000000     0.000000
 
 Subroutine IBZKPT returns following result:
 ===========================================
 
 Found     54 irreducible k-points:
 
 Following reciprocal coordinates:
            Coordinates               Weight
  0.000000  0.000000  0.000000      1.000000
  0.066667  0.000000  0.000000      6.000000
  0.133333  0.000000  0.000000      6.000000
  0.200000  0.000000  0.000000      6.000000
  0.266667  0.000000  0.000000      6.000000
  0.333333  0.000000  0.000000      6.000000
  0.400000  0.000000  0.000000      6.000000
  0.466667  0.000000  0.000000      6.000000
  0.066667  0.066667  0.000000      6.000000
  0.133333  0.066667  0.000000     12.000000
  0.200000  0.066667  0.000000     12.000000
  0.266667  0.066667  0.000000     12.000000
  0.333333  0.066667  0.000000     12.000000
  0.400000  0.066667  0.000000     12.000000
  0.466667  0.066667  0.000000      6.000000
  0.133333  0.133333  0.000000      6.000000
  0.200000  0.133333  0.000000     12.000000
  0.266667  0.133333  0.000000     12.000000
  0.333333  0.133333  0.000000     12.000000
  0.400000  0.133333  0.000000     12.000000
  0.200000  0.200000  0.000000      6.000000
  0.266667  0.200000  0.000000     12.000000
  0.333333  0.200000  0.000000     12.000000
  0.400000  0.200000  0.000000      6.000000
  0.266667  0.266667  0.000000      6.000000
  0.333333  0.266667  0.000000     12.000000
  0.333333  0.333333  0.000000      2.000000
  0.000000  0.000000  0.333333      2.000000
  0.066667  0.000000  0.333333     12.000000
  0.133333  0.000000  0.333333     12.000000
  0.200000  0.000000  0.333333     12.000000
  0.266667  0.000000  0.333333     12.000000
  0.333333  0.000000  0.333333     12.000000
  0.400000  0.000000  0.333333     12.000000
  0.466667  0.000000  0.333333     12.000000
  0.066667  0.066667  0.333333     12.000000
  0.133333  0.066667  0.333333     24.000000
  0.200000  0.066667  0.333333     24.000000
  0.266667  0.066667  0.333333     24.000000
  0.333333  0.066667  0.333333     24.000000
  0.400000  0.066667  0.333333     24.000000
  0.466667  0.066667  0.333333     12.000000
  0.133333  0.133333  0.333333     12.000000
  0.200000  0.133333  0.333333     24.000000
  0.266667  0.133333  0.333333     24.000000
  0.333333  0.133333  0.333333     24.000000
  0.400000  0.133333  0.333333     24.000000
  0.200000  0.200000  0.333333     12.000000
  0.266667  0.200000  0.333333     24.000000
  0.333333  0.200000  0.333333     24.000000
  0.400000  0.200000  0.333333     12.000000
  0.266667  0.266667  0.333333     12.000000
  0.333333  0.266667  0.333333     24.000000
  0.333333  0.333333  0.333333      4.000000
 
 Following cartesian coordinates:
            Coordinates               Weight
  0.000000  0.000000  0.000000      1.000000
  0.026534 -0.015320  0.000000      6.000000
  0.053069 -0.030639  0.000000      6.000000
  0.079603 -0.045959  0.000000      6.000000
  0.106137 -0.061278  0.000000      6.000000
  0.132671 -0.076598  0.000000      6.000000
  0.159206 -0.091917  0.000000      6.000000
  0.185740 -0.107237  0.000000      6.000000
  0.053069  0.000000  0.000000      6.000000
  0.079603 -0.015320  0.000000     12.000000
  0.106137 -0.030639  0.000000     12.000000
  0.132671 -0.045959  0.000000     12.000000
  0.159206 -0.061278  0.000000     12.000000
  0.185740 -0.076598  0.000000     12.000000
  0.212274 -0.091917  0.000000      6.000000
  0.106137  0.000000  0.000000      6.000000
  0.132671 -0.015320  0.000000     12.000000
  0.159206 -0.030639  0.000000     12.000000
  0.185740 -0.045959  0.000000     12.000000
  0.212274 -0.061278  0.000000     12.000000
  0.159206  0.000000  0.000000      6.000000
  0.185740 -0.015320  0.000000     12.000000
  0.212274 -0.030639  0.000000     12.000000
  0.238808 -0.045959  0.000000      6.000000
  0.212274  0.000000  0.000000      6.000000
  0.238808 -0.015320  0.000000     12.000000
  0.265343  0.000000  0.000000      2.000000
  0.000000  0.000000  0.044288      2.000000
  0.026534 -0.015320  0.044288     12.000000
  0.053069 -0.030639  0.044288     12.000000
  0.079603 -0.045959  0.044288     12.000000
  0.106137 -0.061278  0.044288     12.000000
  0.132671 -0.076598  0.044288     12.000000
  0.159206 -0.091917  0.044288     12.000000
  0.185740 -0.107237  0.044288     12.000000
  0.053069  0.000000  0.044288     12.000000
  0.079603 -0.015320  0.044288     24.000000
  0.106137 -0.030639  0.044288     24.000000
  0.132671 -0.045959  0.044288     24.000000
  0.159206 -0.061278  0.044288     24.000000
  0.185740 -0.076598  0.044288     24.000000
  0.212274 -0.091917  0.044288     12.000000
  0.106137  0.000000  0.044288     12.000000
  0.132671 -0.015320  0.044288     24.000000
  0.159206 -0.030639  0.044288     24.000000
  0.185740 -0.045959  0.044288     24.000000
  0.212274 -0.061278  0.044288     24.000000
  0.159206  0.000000  0.044288     12.000000
  0.185740 -0.015320  0.044288     24.000000
  0.212274 -0.030639  0.044288     24.000000
  0.238808 -0.045959  0.044288     12.000000
  0.212274  0.000000  0.044288     12.000000
  0.238808 -0.015320  0.044288     24.000000
  0.265343  0.000000  0.044288      4.000000
 


--------------------------------------------------------------------------------------------------------




 Dimension of arrays:
   k-points           NKPTS =     54   k-points in BZ     NKDIM =     54   number of bands    NBANDS=     20
   number of dos      NEDOS =    301   number of ions     NIONS =      4
   non local maximal  LDIM  =      4   non local SUM 2l+1 LMDIM =      8
   total plane-waves  NPLWV =   8232
   max r-space proj   IRMAX =      1   max aug-charges    IRDMAX=  25156
   dimension x,y,z NGX =    14 NGY =   14 NGZ =   42
   dimension x,y,z NGXF=    28 NGYF=   28 NGZF=   84
   support grid    NGXF=    56 NGYF=   56 NGZF=  168
   ions per type =               2   2
   NGX,Y,Z   is equivalent  to a cutoff of   9.26,  9.26,  9.28 a.u.
   NGXF,Y,Z  is equivalent  to a cutoff of  18.53, 18.53, 18.55 a.u.

 SYSTEM =  BN                                      
 POSCAR =  B2 N2                                   

 Startparameter for this run:
   NWRITE =      2    write-flag & timer
   PREC   = normal    normal or accurate (medium, high low for compatibility)
   ISTART =      1    job   : 0-new  1-cont  2-samecut
   ICHARG =      0    charge: 1-file 2-atom 10-const
   ISPIN  =      1    spin polarized calculation?
   LNONCOLLINEAR =      F non collinear calculations
   LSORBIT =      F    spin-orbit coupling
   INIWAV =      1    electr: 0-lowe 1-rand  2-diag
   LASPH  =      F    aspherical Exc in radial PAW
   METAGGA=      F    non-selfconsistent MetaGGA calc.

 Electronic Relaxation 1
   ENCUT  =  500.0 eV  36.75 Ry    6.06 a.u.   4.58  4.58 13.72*2*pi/ulx,y,z
   ENINI  =  500.0     initial cutoff
   ENAUG  =  627.1 eV  augmentation charge cutoff
   NELM   =     60;   NELMIN=  2; NELMDL=  0     # of ELM steps 
   EDIFF  = 0.1E-03   stopping-criterion for ELM
   LREAL  =      F    real-space projection
   NLSPLINE    = F    spline interpolate recip. space projectors
   LCOMPAT=      F    compatible to vasp.4.4
   GGA_COMPAT  = T    GGA compatible to vasp.4.4-vasp.4.6
   LMAXPAW     = -100 max onsite density
   LMAXMIX     =    2 max onsite mixed and CHGCAR
   VOSKOWN=      0    Vosko Wilk Nusair interpolation
   ROPT   =    0.00000   0.00000
 Ionic relaxation
   EDIFFG = 0.1E-02   stopping-criterion for IOM
   NSW    =      0    number of steps for IOM
   NBLOCK =      1;   KBLOCK =      1    inner block; outer block 
   IBRION =     -1    ionic relax: 0-MD 1-quasi-New 2-CG
   NFREE  =      0    steps in history (QN), initial steepest desc. (CG)
   ISIF   =      2    stress and relaxation
   IWAVPR =     10    prediction:  0-non 1-charg 2-wave 3-comb
   ISYM   =      2    0-nonsym 1-usesym 2-fastsym
   LCORR  =      T    Harris-Foulkes like correction to forces

   POTIM  = 0.5000    time-step for ionic-motion
   TEIN   =    0.0    initial temperature
   TEBEG  =    0.0;   TEEND  =   0.0 temperature during run
   SMASS  =  -3.00    Nose mass-parameter (am)
   estimated Nose-frequenzy (Omega)   =  0.10E-29 period in steps =****** mass=  -0.144E-27a.u.
   SCALEE = 1.0000    scale energy and forces
   NPACO  =    256;   APACO  = 16.0  distance and # of slots for P.C.
   PSTRESS=    0.0 pullay stress

  Mass of Ions in am
   POMASS =  10.81 14.00
  Ionic Valenz
   ZVAL   =   3.00  5.00
  Atomic Wigner-Seitz radii
   RWIGS  =  -1.00 -1.00
  virtual crystal weights 
   VCA    =   1.00  1.00
   NELECT =      16.0000    total number of electrons
   NUPDOWN=      -1.0000    fix difference up-down

 DOS related values:
   EMIN   =  10.00;   EMAX   =-10.00  energy-range for DOS
   EFERMI =   0.00
   ISMEAR =     0;   SIGMA  =   0.05  broadening in eV -4-tet -1-fermi 0-gaus

 Electronic relaxation 2 (details)
   IALGO  =     38    algorithm
   LDIAG  =      T    sub-space diagonalisation (order eigenvalues)
   LSUBROT=      F    optimize rotation matrix (better conditioning)
   TURBO    =      0    0=normal 1=particle mesh
   IRESTART =      0    0=no restart 2=restart with 2 vectors
   NREBOOT  =      0    no. of reboots
   NMIN     =      0    reboot dimension
   EREF     =   0.00    reference energy to select bands
   IMIX   =      4    mixing-type and parameters
     AMIX     =   0.40;   BMIX     =  1.00
     AMIX_MAG =   1.60;   BMIX_MAG =  1.00
     AMIN     =   0.10
     WC   =   100.;   INIMIX=   1;  MIXPRE=   1;  MAXMIX= -45

 Intra band minimization:
   WEIMIN = 0.0000     energy-eigenvalue tresh-hold
   EBREAK =  0.13E-05  absolut break condition
   DEPER  =   0.30     relativ break condition  

   TIME   =   0.40     timestep for ELM

  volume/ion in A,a.u.               =      10.29        69.42
  Fermi-wavevector in a.u.,A,eV,Ry     =   1.194923  2.258077 19.426956  1.427841
  Thomas-Fermi vector in A             =   2.330901
 
 Write flags
   LWAVE        =      T    write WAVECAR
   LDOWNSAMPLE  =      F    k-point downsampling of WAVECAR
   LCHARG       =      T    write CHGCAR
   LVTOT        =      F    write LOCPOT, total local potential
   LVHAR        =      F    write LOCPOT, Hartree potential only
   LELF         =      F    write electronic localiz. function (ELF)
   LORBIT       =     11    0 simple, 1 ext, 2 COOP (PROOUT), +10 PAW based schemes


 Dipole corrections
   LMONO  =      F    monopole corrections only (constant potential shift)
   LDIPOL =      F    correct potential (dipole corrections)
   IDIPOL =      0    1-x, 2-y, 3-z, 4-all directions 
   EPSILON=  1.0000000 bulk dielectric constant

 Exchange correlation treatment:
   GGA     =    --    GGA type
   LEXCH   =     8    internal setting for exchange type
   VOSKOWN=      0    Vosko Wilk Nusair interpolation
   LHFCALC =     F    Hartree Fock is set to
   LHFONE  =     F    Hartree Fock one center treatment
   AEXX    =    0.0000 exact exchange contribution

 Linear response parameters
   LEPSILON=     F    determine dielectric tensor
   LRPA    =     F    only Hartree local field effects (RPA)
   LNABLA  =     F    use nabla operator in PAW spheres
   LVEL    =     F    velocity operator in full k-point grid
   LINTERFAST=   F  fast interpolation
   KINTER  =     0    interpolate to denser k-point grid
   CSHIFT  =0.1000    complex shift for real part using Kramers Kronig
   OMEGAMAX=  -1.0    maximum frequency
   DEG_THRESHOLD= 0.2000000E-02 threshold for treating states as degnerate
   RTIME   =   -0.100 relaxation time in fs
  (WPLASMAI=    0.000 imaginary part of plasma frequency in eV, 0.658/RTIME)
   DFIELD  = 0.0000000 0.0000000 0.0000000 field for delta impulse in time
 
 Orbital magnetization related:
   ORBITALMAG=     F  switch on orbital magnetization
   LCHIMAG   =     F  perturbation theory with respect to B field
   DQ        =  0.001000  dq finite difference perturbation B field
   LLRAUG    =     F  two centre corrections for induced B field



--------------------------------------------------------------------------------------------------------


 Static calculation
 charge density and potential will be updated during run
 non-spin polarized calculation
 Variant of blocked Davidson
 Davidson routine will perform the subspace rotation
 perform sub-space diagonalisation
    after iterative eigenvector-optimisation
 modified Broyden-mixing scheme, WC =      100.0
 initial mixing is a Kerker type mixing with AMIX =  0.4000 and BMIX =      1.0000
 Hartree-type preconditioning will be used
 using additional bands           12
 reciprocal scheme for non local part
 use partial core corrections
 calculate Harris-corrections to forces 
   (improved forces if not selfconsistent)
 use gradient corrections 
 use of overlap-Matrix (Vanderbilt PP)
 Gauss-broadening in eV      SIGMA  =   0.05


--------------------------------------------------------------------------------------------------------


  energy-cutoff  :      500.00
  volume of cell :       41.15
      direct lattice vectors                 reciprocal lattice vectors
     1.256237318 -2.175866861  0.000000000     0.398013968 -0.229793472  0.000000000
     1.256237318  2.175866861  0.000000000     0.398013968  0.229793472  0.000000000
     0.000000000  0.000000000  7.526459174     0.000000000  0.000000000  0.132864602

  length of vectors
     2.512474636  2.512474636  7.526459174     0.459586943  0.459586943  0.132864602


 
 old parameters found on file WAVECAR:
  energy-cutoff  :      500.00
  volume of cell :       41.15
      direct lattice vectors                 reciprocal lattice vectors
     1.256237318 -2.175866861  0.000000000     0.398013968 -0.229793472  0.000000000
     1.256237318  2.175866861  0.000000000     0.398013968  0.229793472  0.000000000
     0.000000000  0.000000000  7.526459174     0.000000000  0.000000000  0.132864602

  length of vectors

 
 k-points in units of 2pi/SCALE and weight: A                                       
   0.00000000  0.00000000  0.00000000       0.001
   0.02653426 -0.01531956  0.00000000       0.009
   0.05306853 -0.03063913  0.00000000       0.009
   0.07960279 -0.04595869  0.00000000       0.009
   0.10613706 -0.06127826  0.00000000       0.009
   0.13267132 -0.07659782  0.00000000       0.009
   0.15920559 -0.09191739  0.00000000       0.009
   0.18573985 -0.10723695  0.00000000       0.009
   0.05306853  0.00000000  0.00000000       0.009
   0.07960279 -0.01531956  0.00000000       0.018
   0.10613706 -0.03063913  0.00000000       0.018
   0.13267132 -0.04595869  0.00000000       0.018
   0.15920559 -0.06127826  0.00000000       0.018
   0.18573985 -0.07659782  0.00000000       0.018
   0.21227412 -0.09191739  0.00000000       0.009
   0.10613706  0.00000000  0.00000000       0.009
   0.13267132 -0.01531956  0.00000000       0.018
   0.15920559 -0.03063913  0.00000000       0.018
   0.18573985 -0.04595869  0.00000000       0.018
   0.21227412 -0.06127826  0.00000000       0.018
   0.15920559  0.00000000  0.00000000       0.009
   0.18573985 -0.01531956  0.00000000       0.018
   0.21227412 -0.03063913  0.00000000       0.018
   0.23880838 -0.04595869  0.00000000       0.009
   0.21227412  0.00000000  0.00000000       0.009
   0.23880838 -0.01531956  0.00000000       0.018
   0.26534265  0.00000000  0.00000000       0.003
   0.00000000  0.00000000  0.04428820       0.003
   0.02653426 -0.01531956  0.04428820       0.018
   0.05306853 -0.03063913  0.04428820       0.018
   0.07960279 -0.04595869  0.04428820       0.018
   0.10613706 -0.06127826  0.04428820       0.018
   0.13267132 -0.07659782  0.04428820       0.018
   0.15920559 -0.09191739  0.04428820       0.018
   0.18573985 -0.10723695  0.04428820       0.018
   0.05306853  0.00000000  0.04428820       0.018
   0.07960279 -0.01531956  0.04428820       0.036
   0.10613706 -0.03063913  0.04428820       0.036
   0.13267132 -0.04595869  0.04428820       0.036
   0.15920559 -0.06127826  0.04428820       0.036
   0.18573985 -0.07659782  0.04428820       0.036
   0.21227412 -0.09191739  0.04428820       0.018
   0.10613706  0.00000000  0.04428820       0.018
   0.13267132 -0.01531956  0.04428820       0.036
   0.15920559 -0.03063913  0.04428820       0.036
   0.18573985 -0.04595869  0.04428820       0.036
   0.21227412 -0.06127826  0.04428820       0.036
   0.15920559  0.00000000  0.04428820       0.018
   0.18573985 -0.01531956  0.04428820       0.036
   0.21227412 -0.03063913  0.04428820       0.036
   0.23880838 -0.04595869  0.04428820       0.018
   0.21227412  0.00000000  0.04428820       0.018
   0.23880838 -0.01531956  0.04428820       0.036
   0.26534265  0.00000000  0.04428820       0.006
 
 k-points in reciprocal lattice and weights: A                                       
   0.00000000  0.00000000  0.00000000       0.001
   0.06666667  0.00000000  0.00000000       0.009
   0.13333333  0.00000000  0.00000000       0.009
   0.20000000  0.00000000  0.00000000       0.009
   0.26666667  0.00000000  0.00000000       0.009
   0.33333333  0.00000000  0.00000000       0.009
   0.40000000  0.00000000  0.00000000       0.009
   0.46666667  0.00000000  0.00000000       0.009
   0.06666667  0.06666667  0.00000000       0.009
   0.13333333  0.06666667  0.00000000       0.018
   0.20000000  0.06666667  0.00000000       0.018
   0.26666667  0.06666667  0.00000000       0.018
   0.33333333  0.06666667  0.00000000       0.018
   0.40000000  0.06666667  0.00000000       0.018
   0.46666667  0.06666667  0.00000000       0.009
   0.13333333  0.13333333  0.00000000       0.009
   0.20000000  0.13333333  0.00000000       0.018
   0.26666667  0.13333333  0.00000000       0.018
   0.33333333  0.13333333  0.00000000       0.018
   0.40000000  0.13333333  0.00000000       0.018
   0.20000000  0.20000000  0.00000000       0.009
   0.26666667  0.20000000  0.00000000       0.018
   0.33333333  0.20000000  0.00000000       0.018
   0.40000000  0.20000000  0.00000000       0.009
   0.26666667  0.26666667  0.00000000       0.009
   0.33333333  0.26666667  0.00000000       0.018
   0.33333333  0.33333333  0.00000000       0.003
   0.00000000  0.00000000  0.33333333       0.003
   0.06666667  0.00000000  0.33333333       0.018
   0.13333333  0.00000000  0.33333333       0.018
   0.20000000  0.00000000  0.33333333       0.018
   0.26666667  0.00000000  0.33333333       0.018
   0.33333333  0.00000000  0.33333333       0.018
   0.40000000  0.00000000  0.33333333       0.018
   0.46666667  0.00000000  0.33333333       0.018
   0.06666667  0.06666667  0.33333333       0.018
   0.13333333  0.06666667  0.33333333       0.036
   0.20000000  0.06666667  0.33333333       0.036
   0.26666667  0.06666667  0.33333333       0.036
   0.33333333  0.06666667  0.33333333       0.036
   0.40000000  0.06666667  0.33333333       0.036
   0.46666667  0.06666667  0.33333333       0.018
   0.13333333  0.13333333  0.33333333       0.018
   0.20000000  0.13333333  0.33333333       0.036
   0.26666667  0.13333333  0.33333333       0.036
   0.33333333  0.13333333  0.33333333       0.036
   0.40000000  0.13333333  0.33333333       0.036
   0.20000000  0.20000000  0.33333333       0.018
   0.26666667  0.20000000  0.33333333       0.036
   0.33333333  0.20000000  0.33333333       0.036
   0.40000000  0.20000000  0.33333333       0.018
   0.26666667  0.26666667  0.33333333       0.018
   0.33333333  0.26666667  0.33333333       0.036
   0.33333333  0.33333333  0.33333333       0.006
 
 position of ions in fractional coordinates (direct lattice) 
   0.00000000  0.00000000  0.00000000
   0.33333333  0.66666667  0.50000000
   0.33333333  0.66666667  0.00000000
   0.66666667  0.33333333  0.50000000
 
 position of ions in cartesian coordinates  (Angst):
   0.00000000  0.00000000  0.00000000
   1.25623732  0.72528895  3.76322959
   1.25623732  0.72528895  0.00000000
   1.25623732 -0.72528895  3.76322959
 


--------------------------------------------------------------------------------------------------------


 k-point  1 :   0.0000 0.0000 0.0000  plane waves:    1041
 k-point  2 :   0.0667 0.0000 0.0000  plane waves:    1064
 k-point  3 :   0.1333 0.0000 0.0000  plane waves:    1054
 k-point  4 :   0.2000 0.0000 0.0000  plane waves:    1066
 k-point  5 :   0.2667 0.0000 0.0000  plane waves:    1054
 k-point  6 :   0.3333 0.0000 0.0000  plane waves:    1056
 k-point  7 :   0.4000 0.0000 0.0000  plane waves:    1044
 k-point  8 :   0.4667 0.0000 0.0000  plane waves:    1034
 k-point  9 :   0.0667 0.0667 0.0000  plane waves:    1059
 k-point 10 :   0.1333 0.0667 0.0000  plane waves:    1059
 k-point 11 :   0.2000 0.0667 0.0000  plane waves:    1054
 k-point 12 :   0.2667 0.0667 0.0000  plane waves:    1054
 k-point 13 :   0.3333 0.0667 0.0000  plane waves:    1049
 k-point 14 :   0.4000 0.0667 0.0000  plane waves:    1035
 k-point 15 :   0.4667 0.0667 0.0000  plane waves:    1030
 k-point 16 :   0.1333 0.1333 0.0000  plane waves:    1051
 k-point 17 :   0.2000 0.1333 0.0000  plane waves:    1047
 k-point 18 :   0.2667 0.1333 0.0000  plane waves:    1038
 k-point 19 :   0.3333 0.1333 0.0000  plane waves:    1036
 k-point 20 :   0.4000 0.1333 0.0000  plane waves:    1047
 k-point 21 :   0.2000 0.2000 0.0000  plane waves:    1039
 k-point 22 :   0.2667 0.2000 0.0000  plane waves:    1033
 k-point 23 :   0.3333 0.2000 0.0000  plane waves:    1029
 k-point 24 :   0.4000 0.2000 0.0000  plane waves:    1034
 k-point 25 :   0.2667 0.2667 0.0000  plane waves:    1033
 k-point 26 :   0.3333 0.2667 0.0000  plane waves:    1026
 k-point 27 :   0.3333 0.3333 0.0000  plane waves:    1038
 k-point 28 :   0.0000 0.0000 0.3333  plane waves:    1054
 k-point 29 :   0.0667 0.0000 0.3333  plane waves:    1049
 k-point 30 :   0.1333 0.0000 0.3333  plane waves:    1060
 k-point 31 :   0.2000 0.0000 0.3333  plane waves:    1054
 k-point 32 :   0.2667 0.0000 0.3333  plane waves:    1059
 k-point 33 :   0.3333 0.0000 0.3333  plane waves:    1051
 k-point 34 :   0.4000 0.0000 0.3333  plane waves:    1042
 k-point 35 :   0.4667 0.0000 0.3333  plane waves:    1042
 k-point 36 :   0.0667 0.0667 0.3333  plane waves:    1054
 k-point 37 :   0.1333 0.0667 0.3333  plane waves:    1056
 k-point 38 :   0.2000 0.0667 0.3333  plane waves:    1056
 k-point 39 :   0.2667 0.0667 0.3333  plane waves:    1050
 k-point 40 :   0.3333 0.0667 0.3333  plane waves:    1042
 k-point 41 :   0.4000 0.0667 0.3333  plane waves:    1040
 k-point 42 :   0.4667 0.0667 0.3333  plane waves:    1043
 k-point 43 :   0.1333 0.1333 0.3333  plane waves:    1054
 k-point 44 :   0.2000 0.1333 0.3333  plane waves:    1051
 k-point 45 :   0.2667 0.1333 0.3333  plane waves:    1044
 k-point 46 :   0.3333 0.1333 0.3333  plane waves:    1038
 k-point 47 :   0.4000 0.1333 0.3333  plane waves:    1037
 k-point 48 :   0.2000 0.2000 0.3333  plane waves:    1045
 k-point 49 :   0.2667 0.2000 0.3333  plane waves:    1037
 k-point 50 :   0.3333 0.2000 0.3333  plane waves:    1037
 k-point 51 :   0.4000 0.2000 0.3333  plane waves:    1031
 k-point 52 :   0.2667 0.2667 0.3333  plane waves:    1038
 k-point 53 :   0.3333 0.2667 0.3333  plane waves:    1030
 k-point 54 :   0.3333 0.3333 0.3333  plane waves:    1032

 maximum and minimum number of plane-waves per node :      1066     1026

 maximum number of plane-waves:      1066
 maximum index in each direction: 
   IXMAX=    4   IYMAX=    4   IZMAX=   13
   IXMIN=   -5   IYMIN=   -4   IZMIN=  -14


 serial   3D FFT for wavefunctions
 parallel 3D FFT for charge:
    minimum data exchange during FFTs selected (reduces bandwidth)


 total amount of memory used by VASP MPI-rank0    39674. kBytes
=======================================================================

   base      :      30000. kBytes
   nonl-proj :       7534. kBytes
   fftplans  :        561. kBytes
   grid      :        600. kBytes
   one-center:         12. kBytes
   wavefun   :        967. kBytes
 
     INWAV:  cpu time    0.0905: real time    0.0912
 Broyden mixing: mesh for mixing (old mesh)
   NGX =  9   NGY =  9   NGZ = 27
  (NGX  = 28   NGY  = 28   NGZ  = 84)
  gives a total of   2187 points

 charge density for first step will be calculated from the start-wavefunctions


--------------------------------------------------------------------------------------------------------


 Maximum index for augmentation-charges         1246 (set IRDMAX)


--------------------------------------------------------------------------------------------------------


 initial charge from wavefunction
 First call to EWALD:  gamma=   0.513
 Maximum number of real-space cells 4x 4x 2
 Maximum number of reciprocal cells 2x 2x 5

    FEWALD:  cpu time    0.0016: real time    0.0016


--------------------------------------- Iteration      1(   1)  ---------------------------------------


    POTLOK:  cpu time    0.0031: real time    0.0041
    SETDIJ:  cpu time    0.0025: real time    0.0025
     EDDAV:  cpu time    0.2638: real time    0.2660
       DOS:  cpu time    0.0005: real time    0.0005
    CHARGE:  cpu time    0.0058: real time    0.0058
    MIXING:  cpu time    0.0004: real time    0.0005
    --------------------------------------------
      LOOP:  cpu time    0.2761: real time    0.2794

 eigenvalue-minimisations  :  2420
 total energy-change (2. order) :-0.3514489E+02  (-0.1152571E+02)
 number of electron      15.9999999 magnetization 
 augmentation part        0.4540203 magnetization 

 Broyden mixing:
  rms(total) = 0.54586E+00    rms(broyden)= 0.54571E+00
  rms(prec ) = 0.56864E+00
  weight for this iteration     100.00

 Free energy of the ion-electron system (eV)
  ---------------------------------------------------
  alpha Z        PSCENC =        34.59384069
  Ewald energy   TEWEN  =      -421.88703305
  -Hartree energ DENC   =      -284.59335086
  -exchange      EXHF   =         0.00000000
  -V(xc)+E(xc)   XCENC  =        56.87305734
  PAW double counting   =      2271.93504193    -2273.39060206
  entropy T*S    EENTRO =        -0.00000000
  eigenvalues    EBANDS =       -90.08377435
  atomic energy  EATOM  =       671.40793249
  Solvation  Ediel_sol  =         0.00000000
  ---------------------------------------------------
  free energy    TOTEN  =       -35.14488786 eV

  energy without entropy =      -35.14488786  energy(sigma->0) =      -35.14488786


--------------------------------------------------------------------------------------------------------




--------------------------------------- Iteration      1(   2)  ---------------------------------------


    POTLOK:  cpu time    0.0022: real time    0.0022
    SETDIJ:  cpu time    0.0025: real time    0.0025
     EDDAV:  cpu time    0.4193: real time    0.4223
       DOS:  cpu time    0.0004: real time    0.0004
    CHARGE:  cpu time    0.0079: real time    0.0080
    MIXING:  cpu time    0.0002: real time    0.0003
    --------------------------------------------
      LOOP:  cpu time    0.4326: real time    0.4357

 eigenvalue-minimisations  :  2680
 total energy-change (2. order) :-0.5087247E-01  (-0.1220099E+00)
 number of electron      15.9999999 magnetization 
 augmentation part        0.4704003 magnetization 

 Broyden mixing:
  rms(total) = 0.41103E+00    rms(broyden)= 0.41103E+00
  rms(prec ) = 0.41313E+00
  weight for this iteration     100.00

 eigenvalues of (default mixing * dielectric matrix)
  average eigenvalue GAMMA=   2.6567
  2.6567

 Free energy of the ion-electron system (eV)
  ---------------------------------------------------
  alpha Z        PSCENC =        34.59384069
  Ewald energy   TEWEN  =      -421.88703305
  -Hartree energ DENC   =      -281.82689231
  -exchange      EXHF   =         0.00000000
  -V(xc)+E(xc)   XCENC  =        56.68822799
  PAW double counting   =      2123.78862656    -2125.22938684
  entropy T*S    EENTRO =        -0.00000000
  eigenvalues    EBANDS =       -92.73107587
  atomic energy  EATOM  =       671.40793249
  Solvation  Ediel_sol  =         0.00000000
  ---------------------------------------------------
  free energy    TOTEN  =       -35.19576033 eV

  energy without entropy =      -35.19576033  energy(sigma->0) =      -35.19576033


--------------------------------------------------------------------------------------------------------




--------------------------------------- Iteration      1(   3)  ---------------------------------------


    POTLOK:  cpu time    0.0022: real time    0.0024
    SETDIJ:  cpu time    0.0023: real time    0.0023
     EDDAV:  cpu time    0.5353: real time    0.5392
       DOS:  cpu time    0.0002: real time    0.0002
    CHARGE:  cpu time    0.0079: real time    0.0080
    MIXING:  cpu time    0.0002: real time    0.0002
    --------------------------------------------
      LOOP:  cpu time    0.5481: real time    0.5524

 eigenvalue-minimisations  :  3320
 total energy-change (2. order) : 0.1229856E-02  (-0.1119754E-02)
 number of electron      15.9999999 magnetization 
 augmentation part        0.4713086 magnetization 

 Broyden mixing:
  rms(total) = 0.84498E-01    rms(broyden)= 0.84495E-01
  rms(prec ) = 0.85195E-01
  weight for this iteration     100.00

 eigenvalues of (default mixing * dielectric matrix)
  average eigenvalue GAMMA=   1.7538
  1.0623  2.4452

 Free energy of the ion-electron system (eV)
  ---------------------------------------------------
  alpha Z        PSCENC =        34.59384069
  Ewald energy   TEWEN  =      -421.88703305
  -Hartree energ DENC   =      -281.61338878
  -exchange      EXHF   =         0.00000000
  -V(xc)+E(xc)   XCENC  =        56.67698857
  PAW double counting   =      1901.47378070    -1902.93151162
  entropy T*S    EENTRO =        -0.00000000
  eigenvalues    EBANDS =       -92.91513948
  atomic energy  EATOM  =       671.40793249
  Solvation  Ediel_sol  =         0.00000000
  ---------------------------------------------------
  free energy    TOTEN  =       -35.19453048 eV

  energy without entropy =      -35.19453048  energy(sigma->0) =      -35.19453048


--------------------------------------------------------------------------------------------------------




--------------------------------------- Iteration      1(   4)  ---------------------------------------


    POTLOK:  cpu time    0.0021: real time    0.0023
    SETDIJ:  cpu time    0.0024: real time    0.0024
     EDDAV:  cpu time    0.4325: real time    0.4356
       DOS:  cpu time    0.0004: real time    0.0004
    --------------------------------------------
      LOOP:  cpu time    0.4373: real time    0.4407

 eigenvalue-minimisations  :  2760
 total energy-change (2. order) : 0.9905778E-04  (-0.9274116E-04)
 number of electron      15.9999999 magnetization 
 augmentation part        0.4713086 magnetization 

 Free energy of the ion-electron system (eV)
  ---------------------------------------------------
  alpha Z        PSCENC =        34.59384069
  Ewald energy   TEWEN  =      -421.88703305
  -Hartree energ DENC   =      -281.67354816
  -exchange      EXHF   =         0.00000000
  -V(xc)+E(xc)   XCENC  =        56.68442820
  PAW double counting   =      1853.59381015    -1855.05574382
  entropy T*S    EENTRO =        -0.00000000
  eigenvalues    EBANDS =       -92.85811793
  atomic energy  EATOM  =       671.40793249
  Solvation  Ediel_sol  =         0.00000000
  ---------------------------------------------------
  free energy    TOTEN  =       -35.19443142 eV

  energy without entropy =      -35.19443142  energy(sigma->0) =      -35.19443142


--------------------------------------------------------------------------------------------------------




 average (electrostatic) potential at core
  the test charge radii are     0.7672  0.7089
  (the norm of the test charge is              1.0000)
       1 -30.0166       2 -29.9835       3 -65.9236       4 -65.8858
 
 
 
 E-fermi :   1.5788     XC(G=0):  -9.2268     alpha+bet : -9.6182


 k-point     1 :       0.0000    0.0000    0.0000
  band No.  band energies     occupation 
      1     -16.3579      2.00000
      2     -16.2469      2.00000
      3      -4.4258      2.00000
      4      -3.3190      2.00000
      5      -0.0544      2.00000
      6      -0.0544      2.00000
      7      -0.0189      2.00000
      8      -0.0189      2.00000
      9       5.9628      0.00000
     10      10.1234      0.00000
     11      12.4734      0.00000
     12      12.8031      0.00000
     13      12.8031      0.00000
     14      12.8450      0.00000
     15      12.8450      0.00000
     16      14.0098      0.00000
     17      15.3051      0.00000
     18      16.1826      0.00000
     19      19.5866      0.00000
     20      25.6362      0.00000

 k-point     2 :       0.0667    0.0000    0.0000
  band No.  band energies     occupation 
      1     -16.2723      2.00000
      2     -16.1626      2.00000
      3      -4.3084      2.00000
      4      -3.2094      2.00000
      5      -0.4180      2.00000
      6      -0.3826      2.00000
      7      -0.2217      2.00000
      8      -0.1858      2.00000
      9       6.1205      0.00000
     10      10.1459      0.00000
     11      12.4636      0.00000
     12      12.7854      0.00000
     13      13.0061      0.00000
     14      13.1819      0.00000
     15      13.2240      0.00000
     16      13.7300      0.00000
     17      15.5903      0.00000
     18      15.9439      0.00000
     19      19.7835      0.00000
     20      25.2914      0.00000

 k-point     3 :       0.1333    0.0000    0.0000
  band No.  band energies     occupation 
      1     -16.0183      2.00000
      2     -15.9120      2.00000
      3      -3.9590      2.00000
      4      -2.8843      2.00000
      5      -1.3862      2.00000
      6      -1.3484      2.00000
      7      -0.6578      2.00000
      8      -0.6212      2.00000
      9       6.5571      0.00000
     10      10.1613      0.00000
     11      12.2581      0.00000
     12      12.6522      0.00000
     13      12.9300      0.00000
     14      13.7197      0.00000
     15      14.2448      0.00000
     16      14.2878      0.00000
     17      15.3426      0.00000
     18      16.3495      0.00000
     19      20.2834      0.00000
     20      24.1235      0.00000

 k-point     4 :       0.2000    0.0000    0.0000
  band No.  band energies     occupation 
      1     -15.6059      2.00000
      2     -15.5055      2.00000
      3      -3.3873      2.00000
      4      -2.7101      2.00000
      5      -2.6686      2.00000
      6      -2.3563      2.00000
      7      -1.2244      2.00000
      8      -1.1870      2.00000
      9       7.2193      0.00000
     10       9.9816      0.00000
     11      11.7131      0.00000
     12      11.9665      0.00000
     13      12.4884      0.00000
     14      14.7019      0.00000
     15      14.7281      0.00000
     16      15.8219      0.00000
     17      15.8679      0.00000
     18      17.3719      0.00000
     19      20.8593      0.00000
     20      22.4473      0.00000

 k-point     5 :       0.2667    0.0000    0.0000
  band No.  band energies     occupation 
      1     -15.0565      2.00000
      2     -14.9645      2.00000
      3      -4.1640      2.00000
      4      -4.1179      2.00000
      5      -2.6139      2.00000
      6      -1.7932      2.00000
      7      -1.7551      2.00000
      8      -1.6529      2.00000
      9       8.0742      0.00000
     10       9.3309      0.00000
     11      10.2403      0.00000
     12      11.6798      0.00000
     13      12.3509      0.00000
     14      14.4386      0.00000
     15      15.8036      0.00000
     16      17.7219      0.00000
     17      17.7756      0.00000
     18      18.3994      0.00000
     19      20.8387      0.00000
     20      21.1062      0.00000

 k-point     6 :       0.3333    0.0000    0.0000
  band No.  band energies     occupation 
      1     -14.4147      2.00000
      2     -14.3341      2.00000
      3      -5.5698      2.00000
      4      -5.5180      2.00000
      5      -2.2771      2.00000
      6      -2.2384      2.00000
      7      -1.6823      2.00000
      8      -0.8322      2.00000
      9       8.1677      0.00000
     10       8.7393      0.00000
     11       9.0711      0.00000
     12      11.4357      0.00000
     13      12.3149      0.00000
     14      14.6919      0.00000
     15      16.5897      0.00000
     16      18.9483      0.00000
     17      19.4893      0.00000
     18      19.7268      0.00000
     19      19.8007      0.00000
     20      20.8866      0.00000

 k-point     7 :       0.4000    0.0000    0.0000
  band No.  band energies     occupation 
      1     -13.7752      2.00000
      2     -13.7105      2.00000
      3      -6.7513      2.00000
      4      -6.6940      2.00000
      5      -2.6231      2.00000
      6      -2.5841      2.00000
      7      -0.6928      2.00000
      8      -0.0271      2.00000
      9       6.8450      0.00000
     10       7.4342      0.00000
     11      10.0578      0.00000
     12      11.2396      0.00000
     13      12.5406      0.00000
     14      15.2665      0.00000
     15      16.1619      0.00000
     16      18.4043      0.00000
     17      19.1649      0.00000
     18      21.1905      0.00000
     19      21.5336      0.00000
     20      22.5788      0.00000

 k-point     8 :       0.4667    0.0000    0.0000
  band No.  band energies     occupation 
      1     -13.3311      2.00000
      2     -13.2842      2.00000
      3      -7.4713      2.00000
      4      -7.4111      2.00000
      5      -2.8025      2.00000
      6      -2.7633      2.00000
      7       0.0985      2.00000
      8       0.4778      2.00000
      9       5.9263      0.00000
     10       6.5773      0.00000
     11      10.7141      0.00000
     12      11.0659      0.00000
     13      13.2994      0.00000
     14      14.7870      0.00000
     15      15.8641      0.00000
     16      17.6273      0.00000
     17      19.6305      0.00000
     18      21.4803      0.00000
     19      22.4591      0.00000
     20      22.6766      0.00000

 k-point     9 :       0.0667    0.0667    0.0000
  band No.  band energies     occupation 
      1     -16.1024      2.00000
      2     -15.9951      2.00000
      3      -4.0749      2.00000
      4      -2.9920      2.00000
      5      -1.0526      2.00000
      6      -1.0171      2.00000
      7      -0.5536      2.00000
      8      -0.5182      2.00000
      9       6.4181      0.00000
     10      10.1662      0.00000
     11      12.5401      0.00000
     12      12.7864      0.00000
     13      13.0891      0.00000
     14      13.1928      0.00000
     15      13.8100      0.00000
     16      14.0982      0.00000
     17      15.5256      0.00000
     18      16.1469      0.00000
     19      20.1339      0.00000
     20      24.4948      0.00000

 k-point    10 :       0.1333    0.0667    0.0000
  band No.  band energies     occupation 
      1     -15.7689      2.00000
      2     -15.6662      2.00000
      3      -3.6141      2.00000
      4      -2.5651      2.00000
      5      -2.1388      2.00000
      6      -2.1009      2.00000
      7      -1.1149      2.00000
      8      -1.0786      2.00000
      9       6.9716      0.00000
     10      10.0913      0.00000
     11      12.1985      0.00000
     12      12.4431      0.00000
     13      12.7854      0.00000
     14      13.7286      0.00000
     15      14.8300      0.00000
     16      14.9095      0.00000
     17      15.4852      0.00000
     18      17.1949      0.00000
     19      20.6944      0.00000
     20      22.9169      0.00000

 k-point    11 :       0.2000    0.0667    0.0000
  band No.  band energies     occupation 
      1     -15.2867      2.00000
      2     -15.1910      2.00000
      3      -3.4810      2.00000
      4      -3.4391      2.00000
      5      -2.9403      2.00000
      6      -1.9476      2.00000
      7      -1.7307      2.00000
      8      -1.6931      2.00000
      9       7.7419      0.00000
     10       9.6812      0.00000
     11      10.8751      0.00000
     12      12.1848      0.00000
     13      12.7124      0.00000
     14      14.4733      0.00000
     15      14.8301      0.00000
     16      16.2190      0.00000
     17      17.1258      0.00000
     18      18.5146      0.00000
     19      21.1630      0.00000
     20      21.1930      0.00000

 k-point    12 :       0.2667    0.0667    0.0000
  band No.  band energies     occupation 
      1     -14.6869      2.00000
      2     -14.6011      2.00000
      3      -4.8852      2.00000
      4      -4.8377      2.00000
      5      -2.2867      2.00000
      6      -2.2481      2.00000
      7      -2.0837      2.00000
      8      -1.1794      2.00000
      9       8.6956      0.00000
     10       8.7604      0.00000
     11       9.4008      0.00000
     12      11.9288      0.00000
     13      12.6370      0.00000
     14      14.4966      0.00000
     15      15.9642      0.00000
     16      17.7167      0.00000
     17      18.8963      0.00000
     18      19.6445      0.00000
     19      19.7793      0.00000
     20      21.1772      0.00000

 k-point    13 :       0.3333    0.0667    0.0000
  band No.  band energies     occupation 
      1     -14.0344      2.00000
      2     -13.9620      2.00000
      3      -6.1739      2.00000
      4      -6.1203      2.00000
      5      -2.7180      2.00000
      6      -2.6785      2.00000
      7      -1.1094      2.00000
      8      -0.3477      2.00000
      9       7.4841      0.00000
     10       8.0099      0.00000
     11       9.7593      0.00000
     12      11.7121      0.00000
     13      12.6742      0.00000
     14      14.9064      0.00000
     15      16.4623      0.00000
     16      18.4472      0.00000
     17      18.7223      0.00000
     18      20.2624      0.00000
     19      20.7104      0.00000
     20      21.6811      0.00000

 k-point    14 :       0.4000    0.0667    0.0000
  band No.  band energies     occupation 
      1     -13.4668      2.00000
      2     -13.4121      2.00000
      3      -7.1417      2.00000
      4      -7.0833      2.00000
      5      -2.9886      2.00000
      6      -2.9487      2.00000
      7      -0.1760      2.00000
      8       0.3480      2.00000
      9       6.3132      0.00000
     10       6.9099      0.00000
     11      10.7113      0.00000
     12      11.5272      0.00000
     13      13.0470      0.00000
     14      15.4647      0.00000
     15      15.5503      0.00000
     16      17.5617      0.00000
     17      19.3003      0.00000
     18      21.0191      0.00000
     19      21.3687      0.00000
     20      22.0987      0.00000

 k-point    15 :       0.4667    0.0667    0.0000
  band No.  band energies     occupation 
      1     -13.2238      2.00000
      2     -13.1809      2.00000
      3      -7.5186      2.00000
      4      -7.4586      2.00000
      5      -3.0806      2.00000
      6      -3.0405      2.00000
      7       0.3038      2.00000
      8       0.5921      2.00000
      9       5.8169      0.00000
     10       6.4486      0.00000
     11      11.1721      0.00000
     12      11.3614      0.00000
     13      13.7851      0.00000
     14      14.4355      0.00000
     15      15.8007      0.00000
     16      17.1446      0.00000
     17      19.6165      0.00000
     18      21.2448      0.00000
     19      21.3425      0.00000
     20      22.6746      0.00000

 k-point    16 :       0.1333    0.1333    0.0000
  band No.  band energies     occupation 
      1     -15.3647      2.00000
      2     -15.2678      2.00000
      3      -3.1356      2.00000
      4      -3.0990      2.00000
      5      -3.0504      2.00000
      6      -2.0474      2.00000
      7      -1.8314      2.00000
      8      -1.7957      2.00000
      9       7.6414      0.00000
     10       9.7957      0.00000
     11      11.1207      0.00000
     12      13.0360      0.00000
     13      13.1960      0.00000
     14      13.7175      0.00000
     15      14.5085      0.00000
     16      15.2704      0.00000
     17      17.0147      0.00000
     18      18.6205      0.00000
     19      21.1305      0.00000
     20      21.2463      0.00000

 k-point    17 :       0.2000    0.1333    0.0000
  band No.  band energies     occupation 
      1     -14.8281      2.00000
      2     -14.7396      2.00000
      3      -4.3128      2.00000
      4      -4.2736      2.00000
      5      -2.5524      2.00000
      6      -2.5151      2.00000
      7      -2.2895      2.00000
      8      -1.3595      2.00000
      9       8.5334      0.00000
     10       9.1072      0.00000
     11       9.8252      0.00000
     12      13.0433      0.00000
     13      13.4628      0.00000
     14      14.3987      0.00000
     15      14.6422      0.00000
     16      16.1318      0.00000
     17      18.5291      0.00000
     18      19.3704      0.00000
     19      20.1404      0.00000
     20      21.5861      0.00000

 k-point    18 :       0.2667    0.1333    0.0000
  band No.  band energies     occupation 
      1     -14.2045      2.00000
      2     -14.1275      2.00000
      3      -5.5383      2.00000
      4      -5.4923      2.00000
      5      -3.1309      2.00000
      6      -3.0910      2.00000
      7      -1.3760      2.00000
      8      -0.5600      2.00000
      9       8.0435      0.00000
     10       8.4812      0.00000
     11       9.6092      0.00000
     12      12.8347      0.00000
     13      13.5169      0.00000
     14      14.5945      0.00000
     15      15.7907      0.00000
     16      17.3682      0.00000
     17      17.9401      0.00000
     18      19.8680      0.00000
     19      20.6476      0.00000
     20      21.0066      0.00000

 k-point    19 :       0.3333    0.1333    0.0000
  band No.  band energies     occupation 
      1     -13.5890      2.00000
      2     -13.5273      2.00000
      3      -6.6099      2.00000
      4      -6.5567      2.00000
      5      -3.5251      2.00000
      6      -3.4833      2.00000
      7      -0.4110      2.00000
      8       0.2205      2.00000
      9       6.8445      0.00000
     10       7.3038      0.00000
     11      10.7851      0.00000
     12      12.6311      0.00000
     13      13.5832      0.00000
     14      14.9271      0.00000
     15      16.0801      0.00000
     16      16.9106      0.00000
     17      18.4909      0.00000
     18      20.2293      0.00000
     19      20.5154      0.00000
     20      21.2027      0.00000

 k-point    20 :       0.4000    0.1333    0.0000
  band No.  band energies     occupation 
      1     -13.1668      2.00000
      2     -13.1216      2.00000
      3      -7.2720      2.00000
      4      -7.2144      2.00000
      5      -3.7242      2.00000
      6      -3.6815      2.00000
      7       0.3548      2.00000
      8       0.7081      2.00000
      9       5.9961      0.00000
     10       6.5311      0.00000
     11      11.7983      0.00000
     12      12.3994      0.00000
     13      13.9137      0.00000
     14      15.1727      0.00000
     15      15.2222      0.00000
     16      16.3015      0.00000
     17      19.2425      0.00000
     18      20.4323      0.00000
     19      20.8075      0.00000
     20      21.9401      0.00000

 k-point    21 :       0.2000    0.2000    0.0000
  band No.  band energies     occupation 
      1     -14.2636      2.00000
      2     -14.1850      2.00000
      3      -5.1874      2.00000
      4      -5.1513      2.00000
      5      -3.4190      2.00000
      6      -3.3815      2.00000
      7      -1.4675      2.00000
      8      -0.6341      2.00000
      9       8.2759      0.00000
     10       8.6671      0.00000
     11       9.5544      0.00000
     12      14.1376      0.00000
     13      14.2994      0.00000
     14      14.4693      0.00000
     15      14.6194      0.00000
     16      16.2757      0.00000
     17      17.6549      0.00000
     18      19.6798      0.00000
     19      20.7225      0.00000
     20      21.4321      0.00000

 k-point    22 :       0.2667    0.2000    0.0000
  band No.  band energies     occupation 
      1     -13.6601      2.00000
      2     -13.5947      2.00000
      3      -6.0803      2.00000
      4      -6.0387      2.00000
      5      -4.0915      2.00000
      6      -4.0508      2.00000
      7      -0.5427      2.00000
      8       0.1420      2.00000
      9       7.2786      0.00000
     10       7.5457      0.00000
     11      10.7565      0.00000
     12      14.0624      0.00000
     13      14.5429      0.00000
     14      14.7293      0.00000
     15      15.6448      0.00000
     16      16.3146      0.00000
     17      17.1475      0.00000
     18      20.0964      0.00000
     19      20.2676      0.00000
     20      20.7509      0.00000

 k-point    23 :       0.3333    0.2000    0.0000
  band No.  band energies     occupation 
      1     -13.1490      2.00000
      2     -13.0993      2.00000
      3      -6.8153      2.00000
      4      -6.7645      2.00000
      5      -4.4870      2.00000
      6      -4.4425      2.00000
      7       0.3284      2.00000
      8       0.7814      2.00000
      9       6.3342      0.00000
     10       6.6761      0.00000
     11      12.0477      0.00000
     12      13.7978      0.00000
     13      14.5609      0.00000
     14      14.7527      0.00000
     15      15.4519      0.00000
     16      15.9776      0.00000
     17      18.3471      0.00000
     18      20.1006      0.00000
     19      20.1339      0.00000
     20      20.8961      0.00000

 k-point    24 :       0.4000    0.2000    0.0000
  band No.  band energies     occupation 
      1     -12.9360      2.00000
      2     -12.8960      2.00000
      3      -7.1113      2.00000
      4      -7.0564      2.00000
      5      -4.6154      2.00000
      6      -4.5695      2.00000
      7       0.7689      2.00000
      8       1.0025      2.00000
      9       5.9206      0.00000
     10       6.3162      0.00000
     11      13.0311      0.00000
     12      13.3613      0.00000
     13      14.5761      0.00000
     14      14.7250      0.00000
     15      15.1324      0.00000
     16      15.6972      0.00000
     17      19.0333      0.00000
     18      20.2441      0.00000
     19      20.3698      0.00000
     20      20.9540      0.00000

 k-point    25 :       0.2667    0.2667    0.0000
  band No.  band energies     occupation 
      1     -13.1468      2.00000
      2     -13.0952      2.00000
      3      -6.4953      2.00000
      4      -6.4564      2.00000
      5      -4.9135      2.00000
      6      -4.8723      2.00000
      7       0.3105      2.00000
      8       0.8025      2.00000
      9       6.5509      0.00000
     10       6.7036      0.00000
     11      12.0596      0.00000
     12      14.2749      0.00000
     13      14.7017      0.00000
     14      15.1013      0.00000
     15      15.5035      0.00000
     16      16.2860      0.00000
     17      17.4294      0.00000
     18      19.8865      0.00000
     19      19.9958      0.00000
     20      20.4649      0.00000

 k-point    26 :       0.3333    0.2667    0.0000
  band No.  band energies     occupation 
      1     -12.8146      2.00000
      2     -12.7752      2.00000
      3      -6.7495      2.00000
      4      -6.7033      2.00000
      5      -5.3805      2.00000
      6      -5.3359      2.00000
      7       0.9599      2.00000
      8       1.1956      2.00000
      9       6.0053      0.00000
     10       6.1977      0.00000
     11      13.3671      0.00000
     12      14.0299      0.00000
     13      14.4114      0.00000
     14      14.4580      0.00000
     15      15.5117      0.00000
     16      16.8752      0.00000
     17      18.5110      0.00000
     18      19.6819      0.00000
     19      20.0774      0.00000
     20      20.2855      0.00000

 k-point    27 :       0.3333    0.3333    0.0000
  band No.  band energies     occupation 
      1     -12.6882      2.00000
      2     -12.6528      2.00000
      3      -6.5576      2.00000
      4      -6.5275      2.00000
      5      -5.8590      2.00000
      6      -5.8271      2.00000
      7       1.2620      2.00000
      8       1.3105      2.00000
      9       5.8944      0.00000
     10       6.0030      0.00000
     11      13.7808      0.00000
     12      14.1169      0.00000
     13      14.2407      0.00000
     14      14.3652      0.00000
     15      15.5760      0.00000
     16      17.6947      0.00000
     17      19.0459      0.00000
     18      19.2362      0.00000
     19      19.7342      0.00000
     20      20.3275      0.00000

 k-point    28 :       0.0000    0.0000    0.3333
  band No.  band energies     occupation 
      1     -16.3343      2.00000
      2     -16.2716      2.00000
      3      -4.1810      2.00000
      4      -3.6322      2.00000
      5      -0.0546      2.00000
      6      -0.0545      2.00000
      7      -0.0193      2.00000
      8      -0.0192      2.00000
      9       6.7866      0.00000
     10       8.7056      0.00000
     11      12.8063      0.00000
     12      12.8063      0.00000
     13      12.8411      0.00000
     14      12.8411      0.00000
     15      13.1856      0.00000
     16      13.8056      0.00000
     17      15.4542      0.00000
     18      15.8449      0.00000
     19      21.1056      0.00000
     20      24.0088      0.00000

 k-point    29 :       0.0667    0.0000    0.3333
  band No.  band energies     occupation 
      1     -16.2489      2.00000
      2     -16.1868      2.00000
      3      -4.0653      2.00000
      4      -3.5203      2.00000
      5      -0.4170      2.00000
      6      -0.3818      2.00000
      7      -0.2214      2.00000
      8      -0.1861      2.00000
      9       6.9328      0.00000
     10       8.8113      0.00000
     11      12.6922      0.00000
     12      12.7738      0.00000
     13      13.1855      0.00000
     14      13.2203      0.00000
     15      13.3007      0.00000
     16      13.6385      0.00000
     17      15.6369      0.00000
     18      15.7938      0.00000
     19      21.1984      0.00000
     20      23.9217      0.00000

 k-point    30 :       0.1333    0.0000    0.3333
  band No.  band energies     occupation 
      1     -15.9959      2.00000
      2     -15.9353      2.00000
      3      -3.7214      2.00000
      4      -3.1887      2.00000
      5      -1.3825      2.00000
      6      -1.3468      2.00000
      7      -0.6573      2.00000
      8      -0.6219      2.00000
      9       7.3333      0.00000
     10       9.0724      0.00000
     11      12.4037      0.00000
     12      12.5754      0.00000
     13      13.0437      0.00000
     14      13.3510      0.00000
     15      14.2483      0.00000
     16      14.2835      0.00000
     17      15.8697      0.00000
     18      16.2539      0.00000
     19      21.4228      0.00000
     20      23.4719      0.00000

 k-point    31 :       0.2000    0.0000    0.3333
  band No.  band energies     occupation 
      1     -15.5851      2.00000
      2     -15.5269      2.00000
      3      -3.1662      2.00000
      4      -2.7475      2.00000
      5      -2.6753      2.00000
      6      -2.5886      2.00000
      7      -1.2233      2.00000
      8      -1.1878      2.00000
      9       7.9155      0.00000
     10       9.3205      0.00000
     11      11.7862      0.00000
     12      11.9451      0.00000
     13      12.5587      0.00000
     14      13.0959      0.00000
     15      15.8267      0.00000
     16      15.8631      0.00000
     17      16.4084      0.00000
     18      17.1824      0.00000
     19      21.5368      0.00000
     20      22.4362      0.00000

 k-point    32 :       0.2667    0.0000    0.3333
  band No.  band energies     occupation 
      1     -15.0382      2.00000
      2     -14.9835      2.00000
      3      -4.1614      2.00000
      4      -4.1248      2.00000
      5      -2.3937      2.00000
      6      -1.9158      2.00000
      7      -1.7919      2.00000
      8      -1.7564      2.00000
      9       8.5300      0.00000
     10       9.1511      0.00000
     11      10.5498      0.00000
     12      11.4233      0.00000
     13      12.4044      0.00000
     14      12.9847      0.00000
     15      17.1796      0.00000
     16      17.7284      0.00000
     17      17.7675      0.00000
     18      18.1355      0.00000
     19      20.7836      0.00000
     20      21.5266      0.00000

 k-point    33 :       0.3333    0.0000    0.3333
  band No.  band energies     occupation 
      1     -14.3996      2.00000
      2     -14.3495      2.00000
      3      -5.5641      2.00000
      4      -5.5255      2.00000
      5      -2.2755      2.00000
      6      -2.2399      2.00000
      7      -1.4857      2.00000
      8      -1.0615      2.00000
      9       8.1640      0.00000
     10       8.3581      0.00000
     11      10.1001      0.00000
     12      11.2218      0.00000
     13      12.4298      0.00000
     14      13.3174      0.00000
     15      17.5869      0.00000
     16      18.6382      0.00000
     17      19.6385      0.00000
     18      19.7385      0.00000
     19      19.7846      0.00000
     20      21.0038      0.00000

 k-point    34 :       0.4000    0.0000    0.3333
  band No.  band energies     occupation 
      1     -13.7650      2.00000
      2     -13.7209      2.00000
      3      -6.7435      2.00000
      4      -6.7031      2.00000
      5      -2.6214      2.00000
      6      -2.5857      2.00000
      7      -0.5337      2.00000
      8      -0.1998      2.00000
      9       6.9197      0.00000
     10       7.2021      0.00000
     11      10.5983      0.00000
     12      11.1490      0.00000
     13      12.8291      0.00000
     14      14.0270      0.00000
     15      16.8905      0.00000
     16      17.9325      0.00000
     17      19.4998      0.00000
     18      21.0672      0.00000
     19      21.5498      0.00000
     20      21.6108      0.00000

 k-point    35 :       0.4667    0.0000    0.3333
  band No.  band energies     occupation 
      1     -13.3269      2.00000
      2     -13.2886      2.00000
      3      -7.4625      2.00000
      4      -7.4213      2.00000
      5      -2.8008      2.00000
      6      -2.7651      2.00000
      7       0.1968      2.00000
      8       0.3897      2.00000
      9       6.0224      0.00000
     10       6.3421      0.00000
     11      10.9164      0.00000
     12      11.0762      0.00000
     13      13.7276      0.00000
     14      14.6131      0.00000
     15      15.8570      0.00000
     16      16.9501      0.00000
     17      19.6809      0.00000
     18      21.1448      0.00000
     19      22.6883      0.00000
     20      22.7531      0.00000

 k-point    36 :       0.0667    0.0667    0.3333
  band No.  band energies     occupation 
      1     -16.0797      2.00000
      2     -16.0186      2.00000
      3      -3.8354      2.00000
      4      -3.2985      2.00000
      5      -1.0502      2.00000
      6      -1.0151      2.00000
      7      -0.5535      2.00000
      8      -0.5184      2.00000
      9       7.2071      0.00000
     10       8.9971      0.00000
     11      12.6583      0.00000
     12      12.7678      0.00000
     13      13.1288      0.00000
     14      13.2087      0.00000
     15      13.8336      0.00000
     16      13.9507      0.00000
     17      15.8345      0.00000
     18      16.0828      0.00000
     19      21.3596      0.00000
     20      23.6433      0.00000

 k-point    37 :       0.1333    0.0667    0.3333
  band No.  band energies     occupation 
      1     -15.7475      2.00000
      2     -15.6884      2.00000
      3      -3.3833      2.00000
      4      -2.8657      2.00000
      5      -2.1316      2.00000
      6      -2.0960      2.00000
      7      -1.1143      2.00000
      8      -1.0791      2.00000
      9       7.7057      0.00000
     10       9.2662      0.00000
     11      12.2608      0.00000
     12      12.4069      0.00000
     13      12.8133      0.00000
     14      13.0905      0.00000
     15      14.8039      0.00000
     16      14.8447      0.00000
     17      16.4237      0.00000
     18      17.0423      0.00000
     19      21.5468      0.00000
     20      22.7693      0.00000

 k-point    38 :       0.2000    0.0667    0.3333
  band No.  band energies     occupation 
      1     -15.2673      2.00000
      2     -15.2111      2.00000
      3      -3.4823      2.00000
      4      -3.4478      2.00000
      5      -2.7103      2.00000
      6      -2.2190      2.00000
      7      -1.7294      2.00000
      8      -1.6938      2.00000
      9       8.3372      0.00000
     10       9.3365      0.00000
     11      11.0947      0.00000
     12      11.8560      0.00000
     13      12.7314      0.00000
     14      13.0424      0.00000
     15      15.9044      0.00000
     16      16.1716      0.00000
     17      17.6431      0.00000
     18      18.3085      0.00000
     19      21.0973      0.00000
     20      21.7196      0.00000

 k-point    39 :       0.2667    0.0667    0.3333
  band No.  band energies     occupation 
      1     -14.6703      2.00000
      2     -14.6181      2.00000
      3      -4.8813      2.00000
      4      -4.8441      2.00000
      5      -2.2855      2.00000
      6      -2.2501      2.00000
      7      -1.8753      2.00000
      8      -1.4250      2.00000
      9       8.6345      0.00000
     10       8.7614      0.00000
     11      10.1676      0.00000
     12      11.5687      0.00000
     13      12.6774      0.00000
     14      13.1829      0.00000
     15      16.9685      0.00000
     16      17.5769      0.00000
     17      19.0439      0.00000
     18      19.5570      0.00000
     19      19.8184      0.00000
     20      21.1878      0.00000

 k-point    40 :       0.3333    0.0667    0.3333
  band No.  band energies     occupation 
      1     -14.0218      2.00000
      2     -13.9749      2.00000
      3      -6.1674      2.00000
      4      -6.1282      2.00000
      5      -2.7162      2.00000
      6      -2.6805      2.00000
      7      -0.9306      2.00000
      8      -0.5497      2.00000
      9       7.5303      0.00000
     10       7.7678      0.00000
     11      10.5428      0.00000
     12      11.5249      0.00000
     13      12.8042      0.00000
     14      13.6905      0.00000
     15      17.1645      0.00000
     16      18.1684      0.00000
     17      18.9281      0.00000
     18      20.0257      0.00000
     19      20.8555      0.00000
     20      21.5867      0.00000

 k-point    41 :       0.4000    0.0667    0.3333
  band No.  band energies     occupation 
      1     -13.4599      2.00000
      2     -13.4192      2.00000
      3      -7.1334      2.00000
      4      -7.0928      2.00000
      5      -2.9866      2.00000
      6      -2.9508      2.00000
      7      -0.0465      2.00000
      8       0.2176      2.00000
      9       6.4004      0.00000
     10       6.6925      0.00000
     11      11.0988      0.00000
     12      11.4766      0.00000
     13      13.3604      0.00000
     14      14.4068      0.00000
     15      16.2454      0.00000
     16      17.2951      0.00000
     17      19.1344      0.00000
     18      20.5883      0.00000
     19      21.9976      0.00000
     20      22.1929      0.00000

 k-point    42 :       0.4667    0.0667    0.3333
  band No.  band energies     occupation 
      1     -13.2210      2.00000
      2     -13.1838      2.00000
      3      -7.5098      2.00000
      4      -7.4687      2.00000
      5      -3.0786      2.00000
      6      -3.0428      2.00000
      7       0.3814      2.00000
      8       0.5297      2.00000
      9       5.9115      0.00000
     10       6.2229      0.00000
     11      11.3202      0.00000
     12      11.4096      0.00000
     13      14.1258      0.00000
     14      14.5488      0.00000
     15      15.6501      0.00000
     16      16.7230      0.00000
     17      19.2096      0.00000
     18      20.6668      0.00000
     19      22.2677      0.00000
     20      22.6573      0.00000

 k-point    43 :       0.1333    0.1333    0.3333
  band No.  band energies     occupation 
      1     -15.3450      2.00000
      2     -15.2883      2.00000
      3      -3.1437      2.00000
      4      -3.1135      2.00000
      5      -2.8084      2.00000
      6      -2.3196      2.00000
      7      -1.8307      2.00000
      8      -1.7955      2.00000
      9       8.2719      0.00000
     10       9.3878      0.00000
     11      11.3340      0.00000
     12      12.2519      0.00000
     13      13.1526      0.00000
     14      13.1833      0.00000
     15      15.0615      0.00000
     16      15.2374      0.00000
     17      17.7062      0.00000
     18      18.4128      0.00000
     19      21.1195      0.00000
     20      21.7336      0.00000

 k-point    44 :       0.2000    0.1333    0.3333
  band No.  band energies     occupation 
      1     -14.8108      2.00000
      2     -14.7575      2.00000
      3      -4.3122      2.00000
      4      -4.2775      2.00000
      5      -2.5518      2.00000
      6      -2.5173      2.00000
      7      -2.0750      2.00000
      8      -1.6124      2.00000
      9       8.7701      0.00000
     10       9.0257      0.00000
     11      10.4029      0.00000
     12      12.0944      0.00000
     13      13.4374      0.00000
     14      13.4670      0.00000
     15      15.6773      0.00000
     16      16.0469      0.00000
     17      18.8703      0.00000
     18      19.4467      0.00000
     19      19.9996      0.00000
     20      21.2410      0.00000

 k-point    45 :       0.2667    0.1333    0.3333
  band No.  band energies     occupation 
      1     -14.1906      2.00000
      2     -14.1419      2.00000
      3      -5.5345      2.00000
      4      -5.4977      2.00000
      5      -3.1290      2.00000
      6      -3.0935      2.00000
      7      -1.1860      2.00000
      8      -0.7786      2.00000
      9       8.0572      0.00000
     10       8.2211      0.00000
     11      10.5885      0.00000
     12      12.2724      0.00000
     13      13.5108      0.00000
     14      13.7069      0.00000
     15      16.4962      0.00000
     16      17.1668      0.00000
     17      18.2410      0.00000
     18      19.0958      0.00000
     19      20.7791      0.00000
     20      21.7749      0.00000

 k-point    46 :       0.3333    0.1333    0.3333
  band No.  band energies     occupation 
      1     -13.5798      2.00000
      2     -13.5367      2.00000
      3      -6.6034      2.00000
      4      -6.5644      2.00000
      5      -3.5224      2.00000
      6      -3.4864      2.00000
      7      -0.2591      2.00000
      8       0.0578      2.00000
      9       6.9062      0.00000
     10       7.1285      0.00000
     11      11.4389      0.00000
     12      12.4118      0.00000
     13      13.6375      0.00000
     14      14.1407      0.00000
     15      16.3612      0.00000
     16      17.3066      0.00000
     17      18.1284      0.00000
     18      19.3882      0.00000
     19      21.1373      0.00000
     20      21.8157      0.00000

 k-point    47 :       0.4000    0.1333    0.3333
  band No.  band energies     occupation 
      1     -13.1630      2.00000
      2     -13.1252      2.00000
      3      -7.2639      2.00000
      4      -7.2236      2.00000
      5      -3.7211      2.00000
      6      -3.6848      2.00000
      7       0.4468      2.00000
      8       0.6268      2.00000
      9       6.0797      0.00000
     10       6.3443      0.00000
     11      12.0963      0.00000
     12      12.3830      0.00000
     13      14.0514      0.00000
     14      14.5978      0.00000
     15      15.5824      0.00000
     16      16.7292      0.00000
     17      18.3276      0.00000
     18      19.8763      0.00000
     19      21.4506      0.00000
     20      21.8586      0.00000

 k-point    48 :       0.2000    0.2000    0.3333
  band No.  band energies     occupation 
      1     -14.2492      2.00000
      2     -14.1999      2.00000
      3      -5.1872      2.00000
      4      -5.1531      2.00000
      5      -3.4180      2.00000
      6      -3.3833      2.00000
      7      -1.2739      2.00000
      8      -0.8579      2.00000
      9       8.2783      0.00000
     10       8.3898      0.00000
     11      10.5998      0.00000
     12      12.5680      0.00000
     13      14.1981      0.00000
     14      14.3102      0.00000
     15      15.6300      0.00000
     16      16.1426      0.00000
     17      17.9391      0.00000
     18      18.8110      0.00000
     19      20.9539      0.00000
     20      21.8479      0.00000

 k-point    49 :       0.2667    0.2000    0.3333
  band No.  band energies     occupation 
      1     -13.6497      2.00000
      2     -13.6053      2.00000
      3      -6.0777      2.00000
      4      -6.0423      2.00000
      5      -4.0892      2.00000
      6      -4.0537      2.00000
      7      -0.3800      2.00000
      8      -0.0369      2.00000
      9       7.3016      0.00000
     10       7.4229      0.00000
     11      11.5100      0.00000
     12      13.0715      0.00000
     13      14.5406      0.00000
     14      14.6763      0.00000
     15      15.8474      0.00000
     16      16.6674      0.00000
     17      17.1917      0.00000
     18      18.4517      0.00000
     19      21.0358      0.00000
     20      21.9564      0.00000

 k-point    50 :       0.3333    0.2000    0.3333
  band No.  band energies     occupation 
      1     -13.1438      2.00000
      2     -13.1046      2.00000
      3      -6.8094      2.00000
      4      -6.7713      2.00000
      5      -4.4834      2.00000
      6      -4.4467      2.00000
      7       0.4417      2.00000
      8       0.6706      2.00000
      9       6.3867      0.00000
     10       6.5554      0.00000
     11      12.5047      0.00000
     12      13.3601      0.00000
     13      14.5331      0.00000
     14      14.6414      0.00000
     15      15.5971      0.00000
     16      16.5820      0.00000
     17      17.8345      0.00000
     18      18.9930      0.00000
     19      20.6066      0.00000
     20      21.4553      0.00000

 k-point    51 :       0.4000    0.2000    0.3333
  band No.  band energies     occupation 
      1     -12.9342      2.00000
      2     -12.8977      2.00000
      3      -7.1040      2.00000
      4      -7.0647      2.00000
      5      -4.6112      2.00000
      6      -4.5742      2.00000
      7       0.8323      2.00000
      8       0.9537      2.00000
      9       5.9858      0.00000
     10       6.1824      0.00000
     11      13.1093      0.00000
     12      13.3168      0.00000
     13      14.4872      0.00000
     14      14.5718      0.00000
     15      15.4873      0.00000
     16      16.4616      0.00000
     17      18.0125      0.00000
     18      19.4781      0.00000
     19      20.6162      0.00000
     20      21.3448      0.00000

 k-point    52 :       0.2667    0.2667    0.3333
  band No.  band energies     occupation 
      1     -13.1410      2.00000
      2     -13.1011      2.00000
      3      -6.4934      2.00000
      4      -6.4589      2.00000
      5      -4.9111      2.00000
      6      -4.8756      2.00000
      7       0.4320      2.00000
      8       0.6801      2.00000
      9       6.5665      0.00000
     10       6.6374      0.00000
     11      12.5104      0.00000
     12      13.4698      0.00000
     13      14.9049      0.00000
     14      15.4715      0.00000
     15      15.6255      0.00000
     16      16.3050      0.00000
     17      17.4121      0.00000
     18      18.4766      0.00000
     19      20.2790      0.00000
     20      21.7262      0.00000

 k-point    53 :       0.3333    0.2667    0.3333
  band No.  band energies     occupation 
      1     -12.8131      2.00000
      2     -12.7767      2.00000
      3      -6.7448      2.00000
      4      -6.7084      2.00000
      5      -5.3770      2.00000
      6      -5.3405      2.00000
      7       1.0228      2.00000
      8       1.1452      2.00000
      9       6.0364      0.00000
     10       6.1294      0.00000
     11      13.1342      0.00000
     12      13.5574      0.00000
     13      14.5330      0.00000
     14      15.5017      0.00000
     15      15.8497      0.00000
     16      16.7272      0.00000
     17      18.1270      0.00000
     18      19.0771      0.00000
     19      19.7679      0.00000
     20      21.0604      0.00000

 k-point    54 :       0.3333    0.3333    0.3333
  band No.  band energies     occupation 
      1     -12.6881      2.00000
      2     -12.6527      2.00000
      3      -6.5580      2.00000
      4      -6.5261      2.00000
      5      -5.8608      2.00000
      6      -5.8278      2.00000
      7       1.2740      2.00000
      8       1.3140      2.00000
      9       5.9137      0.00000
     10       5.9594      0.00000
     11      13.1271      0.00000
     12      13.4764      0.00000
     13      14.6680      0.00000
     14      15.7905      0.00000
     15      16.1178      0.00000
     16      17.2069      0.00000
     17      18.4594      0.00000
     18      19.2213      0.00000
     19      19.4357      0.00000
     20      20.6847      0.00000


--------------------------------------------------------------------------------------------------------


 soft charge-density along one line, spin component           1
         0         1         2         3         4         5         6         7         8         9
 total charge-density along one line
 
 pseudopotential strength for first ion, spin component:           1
  6.448   9.818  -0.000  -0.000  -0.000  -0.000  -0.000  -0.000
  9.818  14.943  -0.000  -0.000  -0.000  -0.000  -0.000  -0.000
 -0.000  -0.000  -2.178  -0.000  -0.000  -3.706  -0.000  -0.000
 -0.000  -0.000  -0.000  -2.176  -0.000  -0.000  -3.698  -0.000
 -0.000  -0.000  -0.000  -0.000  -2.178  -0.000  -0.000  -3.706
 -0.000  -0.000  -3.706  -0.000  -0.000  -6.104  -0.000  -0.000
 -0.000  -0.000  -0.000  -3.698  -0.000  -0.000  -6.086  -0.000
 -0.000  -0.000  -0.000  -0.000  -3.706  -0.000  -0.000  -6.104
 total augmentation occupancy for first ion, spin component:           1
  4.196  -1.223  -0.000   0.000   0.000   0.000   0.000   0.000
 -1.223   0.385  -0.000   0.000   0.000  -0.000   0.000   0.000
  0.000  -0.000   4.894   0.000   0.000  -1.473  -0.000   0.000
  0.000   0.000  -0.000   1.586  -0.000   0.000  -0.387   0.000
  0.000   0.000   0.000  -0.000   4.894   0.000  -0.000  -1.473
 -0.000   0.000  -1.473   0.000   0.000   0.458   0.000   0.000
  0.000   0.000  -0.000  -0.387  -0.000   0.000   0.096   0.000
  0.000   0.000   0.000   0.000  -1.473   0.000   0.000   0.458


------------------------ aborting loop because EDIFF is reached ----------------------------------------


 


 total charge     
 
# of ion       s       p       d       tot
------------------------------------------
    1        0.740   1.413   0.000   2.153
    2        0.740   1.413   0.000   2.153
    3        1.225   2.786   0.000   4.011
    4        1.225   2.786   0.000   4.011
--------------------------------------------------
tot          3.930   8.398   0.000  12.328
 
    CHARGE:  cpu time    0.0059: real time    0.0059
    FORLOC:  cpu time    0.0001: real time    0.0001
    FORNL :  cpu time    0.0176: real time    0.0177
    STRESS:  cpu time    0.1535: real time    0.1552
    FORCOR:  cpu time    0.0019: real time    0.0019
    FORHAR:  cpu time    0.0006: real time    0.0006
    MIXING:  cpu time    0.0001: real time    0.0001
    OFIELD:  cpu time    0.0000: real time    0.0000

  FORCE on cell =-STRESS in cart. coord.  units (eV):
  Direction    XX          YY          ZZ          XY          YZ          ZX
  --------------------------------------------------------------------------------------
  Alpha Z    34.59384    34.59384    34.59384
  Ewald     121.29472   121.29472  -664.47690    -0.00000    -0.00000    -0.00000
  Hartree   223.85817   223.85817  -166.26379    -0.00000    -0.00000     0.00000
  E(xc)     -63.11993   -63.11993   -64.95334     0.00000     0.00000     0.00000
  Local    -544.48641  -544.48567   600.35660     0.00000     0.00000    -0.00010
  n-local   -30.91258   -29.24906   -29.92794     0.09867    -0.00470     0.01641
  augment     2.17004     2.16991     2.52298     0.00000     0.00000    -0.00000
  Kinetic   258.72725   252.87912   288.10611     2.52056     0.04856    -0.16232
  Fock        0.00000     0.00000     0.00000     0.00000     0.00000     0.00000
  -------------------------------------------------------------------------------------
  Total       0.03310     0.03310    -0.04243    -0.00000     0.00000     0.00000
  in kB       1.28892     1.28892    -1.65214    -0.00000     0.00000     0.00000
  external pressure =        0.31 kB  Pullay stress =        0.00 kB


 VOLUME and BASIS-vectors are now :
 -----------------------------------------------------------------------------
  energy-cutoff  :      500.00
  volume of cell :       41.15
      direct lattice vectors                 reciprocal lattice vectors
     1.256237318 -2.175866861  0.000000000     0.398013968 -0.229793472  0.000000000
     1.256237318  2.175866861  0.000000000     0.398013968  0.229793472  0.000000000
     0.000000000  0.000000000  7.526459174     0.000000000  0.000000000  0.132864602

  length of vectors
     2.512474636  2.512474636  7.526459174     0.459586943  0.459586943  0.132864602


 FORCES acting on ions
    electron-ion (+dipol)            ewald-force                    non-local-force                 convergence-correction
 -----------------------------------------------------------------------------------------------
   0.402E-13 -.120E-04 0.669E-14   0.466E-14 -.651E-11 -.139E-13   0.278E-16 0.555E-16 0.000E+00   -.112E-14 0.101E-06 0.312E-13
   0.403E-13 -.158E-04 -.243E-12   0.347E-14 0.130E-10 0.139E-13   0.000E+00 0.000E+00 0.000E+00   0.369E-15 0.111E-06 -.312E-13
   0.569E-13 -.668E-06 -.820E-12   -.352E-14 0.651E-11 -.231E-13   0.104E-16 0.000E+00 0.000E+00   0.793E-14 0.280E-07 0.632E-13
   0.106E-12 -.278E-05 -.358E-11   -.271E-14 -.130E-10 0.231E-13   -.347E-17 0.416E-16 0.000E+00   -.296E-14 0.424E-07 -.623E-13
 -----------------------------------------------------------------------------------------------
   0.244E-12 -.313E-04 -.464E-11   0.191E-14 0.202E-14 0.000E+00   0.347E-16 0.971E-16 0.000E+00   0.422E-14 0.283E-06 0.873E-15
 
 
 POSITION                                       TOTAL-FORCE (eV/Angst)
 -----------------------------------------------------------------------------------
      0.00000      0.00000      0.00000         0.000000      0.000000      0.000000
      1.25624      0.72529      3.76323        -0.000000     -0.000000      0.000000
      1.25624      0.72529      0.00000        -0.000000     -0.000000      0.000000
      1.25624     -0.72529      3.76323        -0.000000     -0.000000      0.000000
 -----------------------------------------------------------------------------------
    total drift:                                0.000000     -0.000031     -0.000000


--------------------------------------------------------------------------------------------------------



  FREE ENERGIE OF THE ION-ELECTRON SYSTEM (eV)
  ---------------------------------------------------
  free  energy   TOTEN  =       -35.19443142 eV

  energy  without entropy=      -35.19443142  energy(sigma->0) =      -35.19443142
 


--------------------------------------------------------------------------------------------------------


    POTLOK:  cpu time    0.0046: real time    0.0047


--------------------------------------------------------------------------------------------------------


 writing wavefunctions
     LOOP+:  cpu time    1.9981: real time    2.0188
    4ORBIT:  cpu time    0.0000: real time    0.0000
 


 total charge     
 
# of ion       s       p       d       tot
------------------------------------------
    1        0.740   1.413   0.000   2.153
    2        0.740   1.413   0.000   2.153
    3        1.225   2.786   0.000   4.011
    4        1.225   2.786   0.000   4.011
--------------------------------------------------
tot          3.930   8.398   0.000  12.328
 

 total amount of memory used by VASP MPI-rank0    39674. kBytes
=======================================================================

   base      :      30000. kBytes
   nonl-proj :       7534. kBytes
   fftplans  :        561. kBytes
   grid      :        600. kBytes
   one-center:         12. kBytes
   wavefun   :        967. kBytes
 
  
  
 General timing and accounting informations for this job:
 ========================================================
  
                  Total CPU time used (sec):        2.668
                            User time (sec):        2.279
                          System time (sec):        0.389
                         Elapsed time (sec):        3.062
  
                   Maximum memory used (kb):       80068.
                   Average memory used (kb):           0.
  
                          Minor page faults:        11136
                          Major page faults:            7
                 Voluntary context switches:         3563
