 vasp.5.4.4.18Apr17-6-g9f103f2a35 (build May 10 2019 17:57:18) complex          
  
 executed on             LinuxIFC date 2024.07.15  18:29:40
 running on   20 total cores
 distrk:  each k-point on   20 cores,    1 groups
 distr:  one band on NCORES_PER_BAND=   1 cores,   20 groups


--------------------------------------------------------------------------------------------------------


 INCAR:
 POTCAR:    PAW_PBE B 06Sep2000                   
 POTCAR:    PAW_PBE N 08Apr2002                   

 ----------------------------------------------------------------------------- 
|                                                                             |
|           W    W    AA    RRRRR   N    N  II  N    N   GGGG   !!!           |
|           W    W   A  A   R    R  NN   N  II  NN   N  G    G  !!!           |
|           W    W  A    A  R    R  N N  N  II  N N  N  G       !!!           |
|           W WW W  AAAAAA  RRRRR   N  N N  II  N  N N  G  GGG   !            |
|           WW  WW  A    A  R   R   N   NN  II  N   NN  G    G                |
|           W    W  A    A  R    R  N    N  II  N    N   GGGG   !!!           |
|                                                                             |
|      For optimal performance we recommend to set                            |
|        NCORE= 4 - approx SQRT( number of cores)                             |
|      NCORE specifies how many cores store one orbital (NPAR=cpu/NCORE).     |
|      This setting can  greatly improve the performance of VASP for DFT.     |
|      The default,   NCORE=1            might be grossly inefficient         |
|      on modern multi-core architectures or massively parallel machines.     |
|      Do your own testing !!!!                                               |
|      Unfortunately you need to use the default for GW and RPA calculations. |
|      (for HF NCORE is supported but not extensively tested yet)             |
|                                                                             |
 ----------------------------------------------------------------------------- 

 POTCAR:    PAW_PBE B 06Sep2000                   
   SHA256 =  a32ced30f5ae56fd4d10b4325ff17eb3e4e38ee0f4288bc219fb012fddfa6e97 B/
   COPYR  = (c) Copyright 06Sep2000 Georg Kresse                                
   COPYR  = This file is part of the software VASP. Any use, copying, and all ot
   COPYR  = If you do not have a valid VASP license, you may not use, copy or di
   VRHFIN =B: s2p1                                                              
   LEXCH  = PE                                                                  
   EATOM  =    71.1703 eV,    5.2309 Ry                                         
                                                                                
   TITEL  = PAW_PBE B 06Sep2000                                                 
   LULTRA =        F    use ultrasoft PP ?                                      
   IUNSCR =        1    unscreen: 0-lin 1-nonlin 2-no                           
   RPACOR =    1.200    partial core radius                                     
   POMASS =   10.811; ZVAL   =    3.000    mass and valenz                      
   RCORE  =    1.700    outmost cutoff radius                                   
   RWIGS  =    1.710; RWIGS  =    0.905    wigner-seitz radius (au A)           
   ENMAX  =  318.614; ENMIN  =  238.960 eV                                      
   ICORE  =        2    local potential                                         
   LCOR   =        T    correct aug charges                                     
   LPAW   =        T    paw PP                                                  
   EAUG   =  535.514                                                            
   DEXC   =    0.000                                                            
   RMAX   =    1.732    core radius for proj-oper                               
   RAUG   =    1.300    factor for augmentation sphere                          
   RDEP   =    1.757    radius for radial grids                                 
   RDEPT  =    1.436    core radius for aug-charge                              
                                                                                
   Atomic configuration                                                         
    4 entries                                                                   
     n  l   j            E        occ.                                          
     1  0  0.50      -180.5896   2.0000                                         
     2  0  0.50        -9.4431   2.0000                                         
     2  1  0.50        -3.6068   1.0000                                         
     3  2  1.50        -4.0817   0.0000                                         
   Description                                                                  
     l       E           TYP  RCUT    TYP  RCUT                                 
     0     -9.4430752     23  1.500                                             
     0      0.8675899     23  1.500                                             
     1     -3.6067955     23  1.700                                             
     1      6.1086146     23  1.700                                             
     2     -4.0817478      7  1.700                                             
  local pseudopotential read in
  partial core-charges read in
  partial kinetic energy density read in
  atomic valenz-charges read in
  non local Contribution for L=           0  read in
    real space projection operators read in
  non local Contribution for L=           0  read in
    real space projection operators read in
  non local Contribution for L=           1  read in
    real space projection operators read in
  non local Contribution for L=           1  read in
    real space projection operators read in
    PAW grid and wavefunctions read in
 
   number of l-projection  operators is LMAX  =           4
   number of lm-projection operators is LMMAX =           8
 
 POTCAR:    PAW_PBE N 08Apr2002                   
   SHA256 =  e053789ff3a61a86a1b75d8a110fcc91f86041011e7b0817c7c99e4e8a6349d7 N/
   COPYR  = (c) Copyright 08Apr2002 Georg Kresse                                
   COPYR  = This file is part of the software VASP. Any use, copying, and all ot
   COPYR  = If you do not have a valid VASP license, you may not use, copy or di
   VRHFIN =N: s2p3                                                              
   LEXCH  = PE                                                                  
   EATOM  =   264.5486 eV,   19.4438 Ry                                         
                                                                                
   TITEL  = PAW_PBE N 08Apr2002                                                 
   LULTRA =        F    use ultrasoft PP ?                                      
   IUNSCR =        1    unscreen: 0-lin 1-nonlin 2-no                           
   RPACOR =    1.200    partial core radius                                     
   POMASS =   14.001; ZVAL   =    5.000    mass and valenz                      
   RCORE  =    1.500    outmost cutoff radius                                   
   RWIGS  =    1.400; RWIGS  =    0.741    wigner-seitz radius (au A)           
   ENMAX  =  400.000; ENMIN  =  300.000 eV                                      
   ICORE  =        2    local potential                                         
   LCOR   =        T    correct aug charges                                     
   LPAW   =        T    paw PP                                                  
   EAUG   =  627.112                                                            
   DEXC   =    0.000                                                            
   RMAX   =    1.529    core radius for proj-oper                               
   RAUG   =    1.300    factor for augmentation sphere                          
   RDEP   =    1.514    radius for radial grids                                 
   RDEPT  =    1.338    core radius for aug-charge                              
                                                                                
   Atomic configuration                                                         
    4 entries                                                                   
     n  l   j            E        occ.                                          
     1  0  0.50      -384.7179   2.0000                                         
     2  0  0.50       -18.5828   2.0000                                         
     2  1  0.50        -7.0898   3.0000                                         
     3  2  1.50        -6.8029   0.0000                                         
   Description                                                                  
     l       E           TYP  RCUT    TYP  RCUT                                 
     0    -18.5828119     23  1.200                                             
     0    -13.5018863     23  1.200                                             
     1     -7.0897853     23  1.500                                             
     1      9.5240782     23  1.500                                             
     2     -6.8029130      7  1.500                                             
  local pseudopotential read in
  partial core-charges read in
  partial kinetic energy density read in
  atomic valenz-charges read in
  non local Contribution for L=           0  read in
    real space projection operators read in
  non local Contribution for L=           0  read in
    real space projection operators read in
  non local Contribution for L=           1  read in
    real space projection operators read in
  non local Contribution for L=           1  read in
    real space projection operators read in
    PAW grid and wavefunctions read in
 
   number of l-projection  operators is LMAX  =           4
   number of lm-projection operators is LMMAX =           8
 
  PAW_PBE B 06Sep2000                   :
 energy of atom  1       EATOM=  -71.1703
 kinetic energy error for atom=    0.0012 (will be added to EATOM!!)
  PAW_PBE N 08Apr2002                   :
 energy of atom  2       EATOM= -264.5486
 kinetic energy error for atom=    0.0138 (will be added to EATOM!!)
 
 
 POSCAR: B2 N2                                   
  positions in direct lattice
  velocities in cartesian coordinates
 exchange correlation table for  LEXCH =        8
   RHO(1)=    0.500       N(1)  =     2000
   RHO(2)=  100.500       N(2)  =     4000
 


--------------------------------------------------------------------------------------------------------


 ion  position               nearest neighbor table
   1  0.000  0.000  0.000-   3 1.45   3 1.45   3 1.45
   2  0.333  0.667  0.500-   4 1.45   4 1.45   4 1.45
   3  0.333  0.667  0.000-   1 1.45   1 1.45   1 1.45
   4  0.667  0.333  0.500-   2 1.45   2 1.45   2 1.45
 
  LATTYP: Found a hexagonal cell.
 ALAT       =     2.5124746362
 C/A-ratio  =     2.9956358826
  
  Lattice vectors:
  
 A1 = (   1.2562373181,  -2.1758668613,   0.0000000000)
 A2 = (   1.2562373181,   2.1758668613,   0.0000000000)
 A3 = (   0.0000000000,   0.0000000000,   7.5264591742)


Analysis of symmetry for initial positions (statically):
=====================================================================
 Subroutine PRICEL returns:
 Original cell was already a primitive cell.
 

 Routine SETGRP: Setting up the symmetry group for a 
 hexagonal supercell.


 Subroutine GETGRP returns: Found 12 space group operations
 (whereof 12 operations were pure point group operations)
 out of a pool of 24 trial point group operations.


The static configuration has the point symmetry D_3h.


Analysis of symmetry for dynamics (positions and initial velocities):
=====================================================================
 Subroutine PRICEL returns:
 Original cell was already a primitive cell.
 

 Routine SETGRP: Setting up the symmetry group for a 
 hexagonal supercell.


 Subroutine GETGRP returns: Found 12 space group operations
 (whereof 12 operations were pure point group operations)
 out of a pool of 24 trial point group operations.


The dynamic configuration has the point symmetry D_3h.


 Subroutine INISYM returns: Found 12 space group operations
 (whereof 12 operations are pure point group operations),
 and found     1 'primitive' translations

 
 
 KPOINTS: A                                       

Automatic generation of k-mesh.
Space group operators:
 irot       det(A)        alpha          n_x          n_y          n_z        tau_x        tau_y        tau_z
    1     1.000000     0.000000     1.000000     0.000000     0.000000     0.000000     0.000000     0.000000
    2    -1.000000    60.000000     0.000000     0.000000    -1.000000     0.000000     0.000000     0.000000
    3     1.000000   120.000000     0.000000     0.000000    -1.000000     0.000000     0.000000     0.000000
    4    -1.000000   180.000000     0.000000     0.000000     1.000000     0.000000     0.000000     0.000000
    5     1.000000   120.000000     0.000000     0.000000     1.000000     0.000000     0.000000     0.000000
    6    -1.000000    60.000000     0.000000     0.000000     1.000000     0.000000     0.000000     0.000000
    7    -1.000000   180.000000     0.500000    -0.866025     0.000000     0.000000     0.000000     0.000000
    8     1.000000   180.000000     0.000000     1.000000     0.000000     0.000000     0.000000     0.000000
    9    -1.000000   180.000000    -0.500000    -0.866025     0.000000     0.000000     0.000000     0.000000
   10     1.000000   180.000000     0.866025     0.500000     0.000000     0.000000     0.000000     0.000000
   11    -1.000000   180.000000     1.000000     0.000000     0.000000     0.000000     0.000000     0.000000
   12     1.000000   180.000000     0.866025    -0.500000     0.000000     0.000000     0.000000     0.000000
 
 Subroutine IBZKPT returns following result:
 ===========================================
 
 Found     32 irreducible k-points:
 
 Following reciprocal coordinates:
            Coordinates               Weight
  0.000000  0.000000  0.000000      1.000000
  0.090909 -0.000000  0.000000      6.000000
  0.181818 -0.000000  0.000000      6.000000
  0.272727  0.000000  0.000000      6.000000
  0.363636 -0.000000  0.000000      6.000000
  0.454545  0.000000  0.000000      6.000000
  0.090909  0.090909  0.000000      6.000000
  0.181818  0.090909  0.000000     12.000000
  0.272727  0.090909  0.000000     12.000000
  0.363636  0.090909  0.000000     12.000000
  0.454545  0.090909  0.000000      6.000000
  0.181818  0.181818  0.000000      6.000000
  0.272727  0.181818  0.000000     12.000000
  0.363636  0.181818  0.000000     12.000000
  0.272727  0.272727  0.000000      6.000000
  0.363636  0.272727  0.000000      6.000000
  0.000000  0.000000  0.333333      2.000000
  0.090909 -0.000000  0.333333     12.000000
  0.181818 -0.000000  0.333333     12.000000
  0.272727  0.000000  0.333333     12.000000
  0.363636 -0.000000  0.333333     12.000000
  0.454545  0.000000  0.333333     12.000000
  0.090909  0.090909  0.333333     12.000000
  0.181818  0.090909  0.333333     24.000000
  0.272727  0.090909  0.333333     24.000000
  0.363636  0.090909  0.333333     24.000000
  0.454545  0.090909  0.333333     12.000000
  0.181818  0.181818  0.333333     12.000000
  0.272727  0.181818  0.333333     24.000000
  0.363636  0.181818  0.333333     24.000000
  0.272727  0.272727  0.333333     12.000000
  0.363636  0.272727  0.333333     12.000000
 
 Following cartesian coordinates:
            Coordinates               Weight
  0.000000  0.000000  0.000000      1.000000
  0.036183 -0.020890  0.000000      6.000000
  0.072366 -0.041781  0.000000      6.000000
  0.108549 -0.062671  0.000000      6.000000
  0.144732 -0.083561  0.000000      6.000000
  0.180915 -0.104452  0.000000      6.000000
  0.072366  0.000000  0.000000      6.000000
  0.108549 -0.020890  0.000000     12.000000
  0.144732 -0.041781  0.000000     12.000000
  0.180915 -0.062671  0.000000     12.000000
  0.217099 -0.083561  0.000000      6.000000
  0.144732  0.000000  0.000000      6.000000
  0.180915 -0.020890  0.000000     12.000000
  0.217099 -0.041781  0.000000     12.000000
  0.217099  0.000000  0.000000      6.000000
  0.253282 -0.020890  0.000000      6.000000
  0.000000  0.000000  0.044288      2.000000
  0.036183 -0.020890  0.044288     12.000000
  0.072366 -0.041781  0.044288     12.000000
  0.108549 -0.062671  0.044288     12.000000
  0.144732 -0.083561  0.044288     12.000000
  0.180915 -0.104452  0.044288     12.000000
  0.072366  0.000000  0.044288     12.000000
  0.108549 -0.020890  0.044288     24.000000
  0.144732 -0.041781  0.044288     24.000000
  0.180915 -0.062671  0.044288     24.000000
  0.217099 -0.083561  0.044288     12.000000
  0.144732  0.000000  0.044288     12.000000
  0.180915 -0.020890  0.044288     24.000000
  0.217099 -0.041781  0.044288     24.000000
  0.217099  0.000000  0.044288     12.000000
  0.253282 -0.020890  0.044288     12.000000
 


--------------------------------------------------------------------------------------------------------




 Dimension of arrays:
   k-points           NKPTS =     32   k-points in BZ     NKDIM =     32   number of bands    NBANDS=     20
   number of dos      NEDOS =    301   number of ions     NIONS =      4
   non local maximal  LDIM  =      4   non local SUM 2l+1 LMDIM =      8
   total plane-waves  NPLWV =   8232
   max r-space proj   IRMAX =      1   max aug-charges    IRDMAX=  25156
   dimension x,y,z NGX =    14 NGY =   14 NGZ =   42
   dimension x,y,z NGXF=    28 NGYF=   28 NGZF=   84
   support grid    NGXF=    56 NGYF=   56 NGZF=  168
   ions per type =               2   2
   NGX,Y,Z   is equivalent  to a cutoff of   9.26,  9.26,  9.28 a.u.
   NGXF,Y,Z  is equivalent  to a cutoff of  18.53, 18.53, 18.55 a.u.

 SYSTEM =  BN                                      
 POSCAR =  B2 N2                                   

 Startparameter for this run:
   NWRITE =      2    write-flag & timer
   PREC   = normal    normal or accurate (medium, high low for compatibility)
   ISTART =      1    job   : 0-new  1-cont  2-samecut
   ICHARG =      0    charge: 1-file 2-atom 10-const
   ISPIN  =      1    spin polarized calculation?
   LNONCOLLINEAR =      F non collinear calculations
   LSORBIT =      F    spin-orbit coupling
   INIWAV =      1    electr: 0-lowe 1-rand  2-diag
   LASPH  =      F    aspherical Exc in radial PAW
   METAGGA=      F    non-selfconsistent MetaGGA calc.

 Electronic Relaxation 1
   ENCUT  =  500.0 eV  36.75 Ry    6.06 a.u.   4.58  4.58 13.72*2*pi/ulx,y,z
   ENINI  =  500.0     initial cutoff
   ENAUG  =  627.1 eV  augmentation charge cutoff
   NELM   =     60;   NELMIN=  2; NELMDL=  0     # of ELM steps 
   EDIFF  = 0.1E-03   stopping-criterion for ELM
   LREAL  =      F    real-space projection
   NLSPLINE    = F    spline interpolate recip. space projectors
   LCOMPAT=      F    compatible to vasp.4.4
   GGA_COMPAT  = T    GGA compatible to vasp.4.4-vasp.4.6
   LMAXPAW     = -100 max onsite density
   LMAXMIX     =    2 max onsite mixed and CHGCAR
   VOSKOWN=      0    Vosko Wilk Nusair interpolation
   ROPT   =    0.00000   0.00000
 Ionic relaxation
   EDIFFG = 0.1E-02   stopping-criterion for IOM
   NSW    =      0    number of steps for IOM
   NBLOCK =      1;   KBLOCK =      1    inner block; outer block 
   IBRION =     -1    ionic relax: 0-MD 1-quasi-New 2-CG
   NFREE  =      0    steps in history (QN), initial steepest desc. (CG)
   ISIF   =      2    stress and relaxation
   IWAVPR =     10    prediction:  0-non 1-charg 2-wave 3-comb
   ISYM   =      2    0-nonsym 1-usesym 2-fastsym
   LCORR  =      T    Harris-Foulkes like correction to forces

   POTIM  = 0.5000    time-step for ionic-motion
   TEIN   =    0.0    initial temperature
   TEBEG  =    0.0;   TEEND  =   0.0 temperature during run
   SMASS  =  -3.00    Nose mass-parameter (am)
   estimated Nose-frequenzy (Omega)   =  0.10E-29 period in steps =****** mass=  -0.144E-27a.u.
   SCALEE = 1.0000    scale energy and forces
   NPACO  =    256;   APACO  = 16.0  distance and # of slots for P.C.
   PSTRESS=    0.0 pullay stress

  Mass of Ions in am
   POMASS =  10.81 14.00
  Ionic Valenz
   ZVAL   =   3.00  5.00
  Atomic Wigner-Seitz radii
   RWIGS  =  -1.00 -1.00
  virtual crystal weights 
   VCA    =   1.00  1.00
   NELECT =      16.0000    total number of electrons
   NUPDOWN=      -1.0000    fix difference up-down

 DOS related values:
   EMIN   =  10.00;   EMAX   =-10.00  energy-range for DOS
   EFERMI =   0.00
   ISMEAR =     0;   SIGMA  =   0.05  broadening in eV -4-tet -1-fermi 0-gaus

 Electronic relaxation 2 (details)
   IALGO  =     38    algorithm
   LDIAG  =      T    sub-space diagonalisation (order eigenvalues)
   LSUBROT=      F    optimize rotation matrix (better conditioning)
   TURBO    =      0    0=normal 1=particle mesh
   IRESTART =      0    0=no restart 2=restart with 2 vectors
   NREBOOT  =      0    no. of reboots
   NMIN     =      0    reboot dimension
   EREF     =   0.00    reference energy to select bands
   IMIX   =      4    mixing-type and parameters
     AMIX     =   0.40;   BMIX     =  1.00
     AMIX_MAG =   1.60;   BMIX_MAG =  1.00
     AMIN     =   0.10
     WC   =   100.;   INIMIX=   1;  MIXPRE=   1;  MAXMIX= -45

 Intra band minimization:
   WEIMIN = 0.0000     energy-eigenvalue tresh-hold
   EBREAK =  0.13E-05  absolut break condition
   DEPER  =   0.30     relativ break condition  

   TIME   =   0.40     timestep for ELM

  volume/ion in A,a.u.               =      10.29        69.42
  Fermi-wavevector in a.u.,A,eV,Ry     =   1.194923  2.258077 19.426956  1.427841
  Thomas-Fermi vector in A             =   2.330901
 
 Write flags
   LWAVE        =      T    write WAVECAR
   LDOWNSAMPLE  =      F    k-point downsampling of WAVECAR
   LCHARG       =      T    write CHGCAR
   LVTOT        =      F    write LOCPOT, total local potential
   LVHAR        =      F    write LOCPOT, Hartree potential only
   LELF         =      F    write electronic localiz. function (ELF)
   LORBIT       =     11    0 simple, 1 ext, 2 COOP (PROOUT), +10 PAW based schemes


 Dipole corrections
   LMONO  =      F    monopole corrections only (constant potential shift)
   LDIPOL =      F    correct potential (dipole corrections)
   IDIPOL =      0    1-x, 2-y, 3-z, 4-all directions 
   EPSILON=  1.0000000 bulk dielectric constant

 Exchange correlation treatment:
   GGA     =    --    GGA type
   LEXCH   =     8    internal setting for exchange type
   VOSKOWN=      0    Vosko Wilk Nusair interpolation
   LHFCALC =     F    Hartree Fock is set to
   LHFONE  =     F    Hartree Fock one center treatment
   AEXX    =    0.0000 exact exchange contribution

 Linear response parameters
   LEPSILON=     F    determine dielectric tensor
   LRPA    =     F    only Hartree local field effects (RPA)
   LNABLA  =     F    use nabla operator in PAW spheres
   LVEL    =     F    velocity operator in full k-point grid
   LINTERFAST=   F  fast interpolation
   KINTER  =     0    interpolate to denser k-point grid
   CSHIFT  =0.1000    complex shift for real part using Kramers Kronig
   OMEGAMAX=  -1.0    maximum frequency
   DEG_THRESHOLD= 0.2000000E-02 threshold for treating states as degnerate
   RTIME   =   -0.100 relaxation time in fs
  (WPLASMAI=    0.000 imaginary part of plasma frequency in eV, 0.658/RTIME)
   DFIELD  = 0.0000000 0.0000000 0.0000000 field for delta impulse in time
 
 Orbital magnetization related:
   ORBITALMAG=     F  switch on orbital magnetization
   LCHIMAG   =     F  perturbation theory with respect to B field
   DQ        =  0.001000  dq finite difference perturbation B field
   LLRAUG    =     F  two centre corrections for induced B field



--------------------------------------------------------------------------------------------------------


 Static calculation
 charge density and potential will be updated during run
 non-spin polarized calculation
 Variant of blocked Davidson
 Davidson routine will perform the subspace rotation
 perform sub-space diagonalisation
    after iterative eigenvector-optimisation
 modified Broyden-mixing scheme, WC =      100.0
 initial mixing is a Kerker type mixing with AMIX =  0.4000 and BMIX =      1.0000
 Hartree-type preconditioning will be used
 using additional bands           12
 reciprocal scheme for non local part
 use partial core corrections
 calculate Harris-corrections to forces 
   (improved forces if not selfconsistent)
 use gradient corrections 
 use of overlap-Matrix (Vanderbilt PP)
 Gauss-broadening in eV      SIGMA  =   0.05


--------------------------------------------------------------------------------------------------------


  energy-cutoff  :      500.00
  volume of cell :       41.15
      direct lattice vectors                 reciprocal lattice vectors
     1.256237318 -2.175866861  0.000000000     0.398013968 -0.229793472  0.000000000
     1.256237318  2.175866861  0.000000000     0.398013968  0.229793472  0.000000000
     0.000000000  0.000000000  7.526459174     0.000000000  0.000000000  0.132864602

  length of vectors
     2.512474636  2.512474636  7.526459174     0.459586943  0.459586943  0.132864602


 
 old parameters found on file WAVECAR:
  energy-cutoff  :      500.00
  volume of cell :       41.15
      direct lattice vectors                 reciprocal lattice vectors
     1.256237318 -2.175866861  0.000000000     0.398013968 -0.229793472  0.000000000
     1.256237318  2.175866861  0.000000000     0.398013968  0.229793472  0.000000000
     0.000000000  0.000000000  7.526459174     0.000000000  0.000000000  0.132864602

  length of vectors

 
 k-points in units of 2pi/SCALE and weight: A                                       
   0.00000000  0.00000000  0.00000000       0.003
   0.03618309 -0.02089032  0.00000000       0.017
   0.07236618 -0.04178063  0.00000000       0.017
   0.10854926 -0.06267095  0.00000000       0.017
   0.14473235 -0.08356126  0.00000000       0.017
   0.18091544 -0.10445158  0.00000000       0.017
   0.07236618  0.00000000  0.00000000       0.017
   0.10854926 -0.02089032  0.00000000       0.033
   0.14473235 -0.04178063  0.00000000       0.033
   0.18091544 -0.06267095  0.00000000       0.033
   0.21709853 -0.08356126  0.00000000       0.017
   0.14473235  0.00000000  0.00000000       0.017
   0.18091544 -0.02089032  0.00000000       0.033
   0.21709853 -0.04178063  0.00000000       0.033
   0.21709853  0.00000000  0.00000000       0.017
   0.25328162 -0.02089032  0.00000000       0.017
   0.00000000  0.00000000  0.04428820       0.006
   0.03618309 -0.02089032  0.04428820       0.033
   0.07236618 -0.04178063  0.04428820       0.033
   0.10854926 -0.06267095  0.04428820       0.033
   0.14473235 -0.08356126  0.04428820       0.033
   0.18091544 -0.10445158  0.04428820       0.033
   0.07236618  0.00000000  0.04428820       0.033
   0.10854926 -0.02089032  0.04428820       0.066
   0.14473235 -0.04178063  0.04428820       0.066
   0.18091544 -0.06267095  0.04428820       0.066
   0.21709853 -0.08356126  0.04428820       0.033
   0.14473235  0.00000000  0.04428820       0.033
   0.18091544 -0.02089032  0.04428820       0.066
   0.21709853 -0.04178063  0.04428820       0.066
   0.21709853  0.00000000  0.04428820       0.033
   0.25328162 -0.02089032  0.04428820       0.033
 
 k-points in reciprocal lattice and weights: A                                       
   0.00000000  0.00000000  0.00000000       0.003
   0.09090909 -0.00000000  0.00000000       0.017
   0.18181818 -0.00000000  0.00000000       0.017
   0.27272727  0.00000000  0.00000000       0.017
   0.36363636 -0.00000000  0.00000000       0.017
   0.45454545  0.00000000  0.00000000       0.017
   0.09090909  0.09090909  0.00000000       0.017
   0.18181818  0.09090909  0.00000000       0.033
   0.27272727  0.09090909  0.00000000       0.033
   0.36363636  0.09090909  0.00000000       0.033
   0.45454545  0.09090909  0.00000000       0.017
   0.18181818  0.18181818  0.00000000       0.017
   0.27272727  0.18181818  0.00000000       0.033
   0.36363636  0.18181818  0.00000000       0.033
   0.27272727  0.27272727  0.00000000       0.017
   0.36363636  0.27272727  0.00000000       0.017
   0.00000000  0.00000000  0.33333333       0.006
   0.09090909 -0.00000000  0.33333333       0.033
   0.18181818 -0.00000000  0.33333333       0.033
   0.27272727  0.00000000  0.33333333       0.033
   0.36363636 -0.00000000  0.33333333       0.033
   0.45454545  0.00000000  0.33333333       0.033
   0.09090909  0.09090909  0.33333333       0.033
   0.18181818  0.09090909  0.33333333       0.066
   0.27272727  0.09090909  0.33333333       0.066
   0.36363636  0.09090909  0.33333333       0.066
   0.45454545  0.09090909  0.33333333       0.033
   0.18181818  0.18181818  0.33333333       0.033
   0.27272727  0.18181818  0.33333333       0.066
   0.36363636  0.18181818  0.33333333       0.066
   0.27272727  0.27272727  0.33333333       0.033
   0.36363636  0.27272727  0.33333333       0.033
 
 position of ions in fractional coordinates (direct lattice) 
   0.00000000  0.00000000  0.00000000
   0.33333333  0.66666667  0.50000000
   0.33333333  0.66666667  0.00000000
   0.66666667  0.33333333  0.50000000
 
 position of ions in cartesian coordinates  (Angst):
   0.00000000  0.00000000  0.00000000
   1.25623732  0.72528895  3.76322959
   1.25623732  0.72528895  0.00000000
   1.25623732 -0.72528895  3.76322959
 


--------------------------------------------------------------------------------------------------------


 k-point  1 :   0.0000 0.0000 0.0000  plane waves:    1041
 k-point  2 :   0.0909-0.0000 0.0000  plane waves:    1068
 k-point  3 :   0.1818-0.0000 0.0000  plane waves:    1066
 k-point  4 :   0.2727 0.0000 0.0000  plane waves:    1056
 k-point  5 :   0.3636-0.0000 0.0000  plane waves:    1052
 k-point  6 :   0.4545 0.0000 0.0000  plane waves:    1038
 k-point  7 :   0.0909 0.0909 0.0000  plane waves:    1059
 k-point  8 :   0.1818 0.0909 0.0000  plane waves:    1054
 k-point  9 :   0.2727 0.0909 0.0000  plane waves:    1054
 k-point 10 :   0.3636 0.0909 0.0000  plane waves:    1041
 k-point 11 :   0.4545 0.0909 0.0000  plane waves:    1042
 k-point 12 :   0.1818 0.1818 0.0000  plane waves:    1049
 k-point 13 :   0.2727 0.1818 0.0000  plane waves:    1036
 k-point 14 :   0.3636 0.1818 0.0000  plane waves:    1037
 k-point 15 :   0.2727 0.2727 0.0000  plane waves:    1027
 k-point 16 :   0.3636 0.2727 0.0000  plane waves:    1026
 k-point 17 :   0.0000 0.0000 0.3333  plane waves:    1054
 k-point 18 :   0.0909-0.0000 0.3333  plane waves:    1052
 k-point 19 :   0.1818-0.0000 0.3333  plane waves:    1049
 k-point 20 :   0.2727 0.0000 0.3333  plane waves:    1060
 k-point 21 :   0.3636-0.0000 0.3333  plane waves:    1040
 k-point 22 :   0.4545 0.0000 0.3333  plane waves:    1040
 k-point 23 :   0.0909 0.0909 0.3333  plane waves:    1059
 k-point 24 :   0.1818 0.0909 0.3333  plane waves:    1057
 k-point 25 :   0.2727 0.0909 0.3333  plane waves:    1050
 k-point 26 :   0.3636 0.0909 0.3333  plane waves:    1037
 k-point 27 :   0.4545 0.0909 0.3333  plane waves:    1042
 k-point 28 :   0.1818 0.1818 0.3333  plane waves:    1051
 k-point 29 :   0.2727 0.1818 0.3333  plane waves:    1034
 k-point 30 :   0.3636 0.1818 0.3333  plane waves:    1040
 k-point 31 :   0.2727 0.2727 0.3333  plane waves:    1040
 k-point 32 :   0.3636 0.2727 0.3333  plane waves:    1030

 maximum and minimum number of plane-waves per node :      1068     1026

 maximum number of plane-waves:      1068
 maximum index in each direction: 
   IXMAX=    4   IYMAX=    4   IZMAX=   13
   IXMIN=   -5   IYMIN=   -4   IZMIN=  -14


 serial   3D FFT for wavefunctions
 parallel 3D FFT for charge:
    minimum data exchange during FFTs selected (reduces bandwidth)


 total amount of memory used by VASP MPI-rank0    36238. kBytes
=======================================================================

   base      :      30000. kBytes
   nonl-proj :       4492. kBytes
   fftplans  :        561. kBytes
   grid      :        600. kBytes
   one-center:         12. kBytes
   wavefun   :        573. kBytes
 
     INWAV:  cpu time    0.0461: real time    0.0465
 Broyden mixing: mesh for mixing (old mesh)
   NGX =  9   NGY =  9   NGZ = 27
  (NGX  = 28   NGY  = 28   NGZ  = 84)
  gives a total of   2187 points

 charge density for first step will be calculated from the start-wavefunctions


--------------------------------------------------------------------------------------------------------


 Maximum index for augmentation-charges         1246 (set IRDMAX)


--------------------------------------------------------------------------------------------------------


 initial charge from wavefunction
 First call to EWALD:  gamma=   0.513
 Maximum number of real-space cells 4x 4x 2
 Maximum number of reciprocal cells 2x 2x 5

    FEWALD:  cpu time    0.0016: real time    0.0017


--------------------------------------- Iteration      1(   1)  ---------------------------------------


    POTLOK:  cpu time    0.0030: real time    0.0042
    SETDIJ:  cpu time    0.0025: real time    0.0026
     EDDAV:  cpu time    0.2679: real time    0.2699
       DOS:  cpu time    0.0004: real time    0.0004
    CHARGE:  cpu time    0.0042: real time    0.0042
    MIXING:  cpu time    0.0004: real time    0.0004
    --------------------------------------------
      LOOP:  cpu time    0.2784: real time    0.2817

 eigenvalue-minimisations  :  1520
 total energy-change (2. order) :-0.3517629E+02  (-0.1211193E+02)
 number of electron      15.9999999 magnetization 
 augmentation part        0.4501047 magnetization 

 Broyden mixing:
  rms(total) = 0.60013E+00    rms(broyden)= 0.59994E+00
  rms(prec ) = 0.63089E+00
  weight for this iteration     100.00

 Free energy of the ion-electron system (eV)
  ---------------------------------------------------
  alpha Z        PSCENC =        34.59384069
  Ewald energy   TEWEN  =      -421.88703305
  -Hartree energ DENC   =      -285.30334769
  -exchange      EXHF   =         0.00000000
  -V(xc)+E(xc)   XCENC  =        56.91945969
  PAW double counting   =      2297.39330121    -2298.84691807
  entropy T*S    EENTRO =        -0.00000000
  eigenvalues    EBANDS =       -89.45352203
  atomic energy  EATOM  =       671.40793249
  Solvation  Ediel_sol  =         0.00000000
  ---------------------------------------------------
  free energy    TOTEN  =       -35.17628674 eV

  energy without entropy =      -35.17628674  energy(sigma->0) =      -35.17628674


--------------------------------------------------------------------------------------------------------




--------------------------------------- Iteration      1(   2)  ---------------------------------------


    POTLOK:  cpu time    0.0022: real time    0.0022
    SETDIJ:  cpu time    0.0024: real time    0.0025
     EDDAV:  cpu time    0.3242: real time    0.3263
       DOS:  cpu time    0.0003: real time    0.0003
    CHARGE:  cpu time    0.0057: real time    0.0057
    MIXING:  cpu time    0.0003: real time    0.0003
    --------------------------------------------
      LOOP:  cpu time    0.3351: real time    0.3373

 eigenvalue-minimisations  :  1640
 total energy-change (2. order) :-0.2021963E-01  (-0.1259341E+00)
 number of electron      15.9999999 magnetization 
 augmentation part        0.4703230 magnetization 

 Broyden mixing:
  rms(total) = 0.43141E+00    rms(broyden)= 0.43140E+00
  rms(prec ) = 0.43437E+00
  weight for this iteration     100.00

 eigenvalues of (default mixing * dielectric matrix)
  average eigenvalue GAMMA=   2.4557
  2.4557

 Free energy of the ion-electron system (eV)
  ---------------------------------------------------
  alpha Z        PSCENC =        34.59384069
  Ewald energy   TEWEN  =      -421.88703305
  -Hartree energ DENC   =      -281.92235075
  -exchange      EXHF   =         0.00000000
  -V(xc)+E(xc)   XCENC  =        56.69273792
  PAW double counting   =      2133.91206719    -2135.34768948
  entropy T*S    EENTRO =        -0.00000000
  eigenvalues    EBANDS =       -92.64601140
  atomic energy  EATOM  =       671.40793249
  Solvation  Ediel_sol  =         0.00000000
  ---------------------------------------------------
  free energy    TOTEN  =       -35.19650637 eV

  energy without entropy =      -35.19650637  energy(sigma->0) =      -35.19650637


--------------------------------------------------------------------------------------------------------




--------------------------------------- Iteration      1(   3)  ---------------------------------------


    POTLOK:  cpu time    0.0021: real time    0.0024
    SETDIJ:  cpu time    0.0025: real time    0.0025
     EDDAV:  cpu time    0.4084: real time    0.4114
       DOS:  cpu time    0.0004: real time    0.0004
    CHARGE:  cpu time    0.0058: real time    0.0059
    MIXING:  cpu time    0.0002: real time    0.0002
    --------------------------------------------
      LOOP:  cpu time    0.4194: real time    0.4227

 eigenvalue-minimisations  :  1840
 total energy-change (2. order) : 0.1941373E-02  (-0.1471553E-02)
 number of electron      15.9999999 magnetization 
 augmentation part        0.4714396 magnetization 

 Broyden mixing:
  rms(total) = 0.10881E+00    rms(broyden)= 0.10881E+00
  rms(prec ) = 0.10973E+00
  weight for this iteration     100.00

 eigenvalues of (default mixing * dielectric matrix)
  average eigenvalue GAMMA=   1.7632
  1.0649  2.4615

 Free energy of the ion-electron system (eV)
  ---------------------------------------------------
  alpha Z        PSCENC =        34.59384069
  Ewald energy   TEWEN  =      -421.88703305
  -Hartree energ DENC   =      -281.64361355
  -exchange      EXHF   =         0.00000000
  -V(xc)+E(xc)   XCENC  =        56.67744573
  PAW double counting   =      1915.92816289    -1917.38376519
  entropy T*S    EENTRO =        -0.00000000
  eigenvalues    EBANDS =       -92.88753502
  atomic energy  EATOM  =       671.40793249
  Solvation  Ediel_sol  =         0.00000000
  ---------------------------------------------------
  free energy    TOTEN  =       -35.19456500 eV

  energy without entropy =      -35.19456500  energy(sigma->0) =      -35.19456500


--------------------------------------------------------------------------------------------------------




--------------------------------------- Iteration      1(   4)  ---------------------------------------


    POTLOK:  cpu time    0.0021: real time    0.0024
    SETDIJ:  cpu time    0.0024: real time    0.0025
     EDDAV:  cpu time    0.3383: real time    0.3406
       DOS:  cpu time    0.0003: real time    0.0003
    CHARGE:  cpu time    0.0057: real time    0.0057
    MIXING:  cpu time    0.0002: real time    0.0002
    --------------------------------------------
      LOOP:  cpu time    0.3490: real time    0.3516

 eigenvalue-minimisations  :  1680
 total energy-change (2. order) : 0.1266603E-03  (-0.1275541E-03)
 number of electron      15.9999999 magnetization 
 augmentation part        0.4702215 magnetization 

 Broyden mixing:
  rms(total) = 0.54659E-02    rms(broyden)= 0.54654E-02
  rms(prec ) = 0.65190E-02
  weight for this iteration     100.00

 eigenvalues of (default mixing * dielectric matrix)
  average eigenvalue GAMMA=   1.7033
  2.5704  1.0642  1.4752

 Free energy of the ion-electron system (eV)
  ---------------------------------------------------
  alpha Z        PSCENC =        34.59384069
  Ewald energy   TEWEN  =      -421.88703305
  -Hartree energ DENC   =      -281.70210378
  -exchange      EXHF   =         0.00000000
  -V(xc)+E(xc)   XCENC  =        56.68587175
  PAW double counting   =      1852.77953026    -1854.24178240
  entropy T*S    EENTRO =        -0.00000000
  eigenvalues    EBANDS =       -92.83069429
  atomic energy  EATOM  =       671.40793249
  Solvation  Ediel_sol  =         0.00000000
  ---------------------------------------------------
  free energy    TOTEN  =       -35.19443834 eV

  energy without entropy =      -35.19443834  energy(sigma->0) =      -35.19443834


--------------------------------------------------------------------------------------------------------




--------------------------------------- Iteration      1(   5)  ---------------------------------------


    POTLOK:  cpu time    0.0021: real time    0.0023
    SETDIJ:  cpu time    0.0023: real time    0.0024
     EDDAV:  cpu time    0.3496: real time    0.3522
       DOS:  cpu time    0.0002: real time    0.0002
    --------------------------------------------
      LOOP:  cpu time    0.3543: real time    0.3571

 eigenvalue-minimisations  :  1720
 total energy-change (2. order) : 0.4850371E-05  (-0.7988110E-05)
 number of electron      15.9999999 magnetization 
 augmentation part        0.4702215 magnetization 

 Free energy of the ion-electron system (eV)
  ---------------------------------------------------
  alpha Z        PSCENC =        34.59384069
  Ewald energy   TEWEN  =      -421.88703305
  -Hartree energ DENC   =      -281.56675697
  -exchange      EXHF   =         0.00000000
  -V(xc)+E(xc)   XCENC  =        56.67911505
  PAW double counting   =      1848.44512063    -1849.90587731
  entropy T*S    EENTRO =        -0.00000000
  eigenvalues    EBANDS =       -92.96077502
  atomic energy  EATOM  =       671.40793249
  Solvation  Ediel_sol  =         0.00000000
  ---------------------------------------------------
  free energy    TOTEN  =       -35.19443349 eV

  energy without entropy =      -35.19443349  energy(sigma->0) =      -35.19443349


--------------------------------------------------------------------------------------------------------




 average (electrostatic) potential at core
  the test charge radii are     0.7672  0.7089
  (the norm of the test charge is              1.0000)
       1 -30.0256       2 -29.9930       3 -65.9323       4 -65.8945
 
 
 
 E-fermi :   1.5740     XC(G=0):  -9.2298     alpha+bet : -9.6182


 k-point     1 :       0.0000    0.0000    0.0000
  band No.  band energies     occupation 
      1     -16.3644      2.00000
      2     -16.2536      2.00000
      3      -4.4296      2.00000
      4      -3.3236      2.00000
      5      -0.0619      2.00000
      6      -0.0619      2.00000
      7      -0.0267      2.00000
      8      -0.0267      2.00000
      9       5.9607      0.00000
     10      10.1193      0.00000
     11      12.4683      0.00000
     12      12.7966      0.00000
     13      12.7966      0.00000
     14      12.8381      0.00000
     15      12.8381      0.00000
     16      14.0040      0.00000
     17      15.3000      0.00000
     18      16.1783      0.00000
     19      19.5845      0.00000
     20      25.6336      0.00000

 k-point     2 :       0.0909   -0.0000    0.0000
  band No.  band energies     occupation 
      1     -16.2056      2.00000
      2     -16.0970      2.00000
      3      -4.2117      2.00000
      4      -3.1203      2.00000
      5      -0.7200      2.00000
      6      -0.6844      2.00000
      7      -0.3634      2.00000
      8      -0.3276      2.00000
      9       6.2481      0.00000
     10      10.1545      0.00000
     11      12.4025      0.00000
     12      12.7373      0.00000
     13      13.2085      0.00000
     14      13.4893      0.00000
     15      13.4905      0.00000
     16      13.5323      0.00000
     17      15.7505      0.00000
     18      15.8161      0.00000
     19      19.9376      0.00000
     20      24.9623      0.00000

 k-point     3 :       0.1818   -0.0000    0.0000
  band No.  band energies     occupation 
      1     -15.7396      2.00000
      2     -15.6376      2.00000
      3      -3.5683      2.00000
      4      -2.5239      2.00000
      5      -2.3348      2.00000
      6      -2.2947      2.00000
      7      -1.0724      2.00000
      8      -1.0355      2.00000
      9       7.0162      0.00000
     10      10.0616      0.00000
     11      12.0420      0.00000
     12      12.0730      0.00000
     13      12.5268      0.00000
     14      14.4318      0.00000
     15      14.8523      0.00000
     16      15.3449      0.00000
     17      15.3894      0.00000
     18      17.0748      0.00000
     19      20.7104      0.00000
     20      22.9116      0.00000

 k-point     4 :       0.2727    0.0000    0.0000
  band No.  band energies     occupation 
      1     -15.0076      2.00000
      2     -14.9167      2.00000
      3      -4.3032      2.00000
      4      -4.2568      2.00000
      5      -2.5388      2.00000
      6      -1.8490      2.00000
      7      -1.8112      2.00000
      8      -1.5866      2.00000
      9       8.1579      0.00000
     10       9.2386      0.00000
     11      10.0963      0.00000
     12      11.6498      0.00000
     13      12.3363      0.00000
     14      14.4393      0.00000
     15      15.8906      0.00000
     16      17.8966      0.00000
     17      17.9511      0.00000
     18      18.4745      0.00000
     19      20.7011      0.00000
     20      21.0924      0.00000

 k-point     5 :       0.3636   -0.0000    0.0000
  band No.  band energies     occupation 
      1     -14.1216      2.00000
      2     -14.0479      2.00000
      3      -6.1535      2.00000
      4      -6.0993      2.00000
      5      -2.4609      2.00000
      6      -2.4224      2.00000
      7      -1.2341      2.00000
      8      -0.4565      2.00000
      9       7.5495      0.00000
     10       8.1067      0.00000
     11       9.5343      0.00000
     12      11.3357      0.00000
     13      12.3645      0.00000
     14      14.9263      0.00000
     15      16.5920      0.00000
     16      18.9610      0.00000
     17      18.9908      0.00000
     18      20.5896      0.00000
     19      20.6778      0.00000
     20      20.9670      0.00000

 k-point     6 :       0.4545    0.0000    0.0000
  band No.  band energies     occupation 
      1     -13.3919      2.00000
      2     -13.3425      2.00000
      3      -7.3943      2.00000
      4      -7.3346      2.00000
      5      -2.7903      2.00000
      6      -2.7514      2.00000
      7      -0.0136      2.00000
      8       0.4198      2.00000
      9       6.0327      0.00000
     10       6.6765      0.00000
     11      10.6266      0.00000
     12      11.0922      0.00000
     13      13.1164      0.00000
     14      15.0414      0.00000
     15      15.7723      0.00000
     16      17.7295      0.00000
     17      19.5598      0.00000
     18      21.4464      0.00000
     19      22.4865      0.00000
     20      22.5360      0.00000

 k-point     7 :       0.0909    0.0909    0.0000
  band No.  band energies     occupation 
      1     -15.8929      2.00000
      2     -15.7887      2.00000
      3      -3.7808      2.00000
      4      -2.7201      2.00000
      5      -1.7647      2.00000
      6      -1.7287      2.00000
      7      -0.9586      2.00000
      8      -0.9235      2.00000
      9       6.7792      0.00000
     10      10.1327      0.00000
     11      12.5375      0.00000
     12      12.6373      0.00000
     13      12.8429      0.00000
     14      13.2798      0.00000
     15      14.3901      0.00000
     16      15.0656      0.00000
     17      15.0932      0.00000
     18      16.8592      0.00000
     19      20.5168      0.00000
     20      23.4202      0.00000

 k-point     8 :       0.1818    0.0909    0.0000
  band No.  band energies     occupation 
      1     -15.2916      2.00000
      2     -15.1961      2.00000
      3      -3.4178      2.00000
      4      -3.3781      2.00000
      5      -2.9421      2.00000
      6      -1.9500      2.00000
      7      -1.8420      2.00000
      8      -1.8052      2.00000
      9       7.7566      0.00000
     10       9.6899      0.00000
     11      10.8890      0.00000
     12      12.4949      0.00000
     13      12.9376      0.00000
     14      14.4417      0.00000
     15      14.4670      0.00000
     16      15.8235      0.00000
     17      17.1972      0.00000
     18      18.7020      0.00000
     19      20.9925      0.00000
     20      21.2582      0.00000

 k-point     9 :       0.2727    0.0909    0.0000
  band No.  band energies     occupation 
      1     -14.4704      2.00000
      2     -14.3887      2.00000
      3      -5.2600      2.00000
      4      -5.2123      2.00000
      5      -2.6154      2.00000
      6      -2.5765      2.00000
      7      -1.7625      2.00000
      8      -0.8981      2.00000
      9       8.3970      0.00000
     10       8.9387      0.00000
     11       9.0916      0.00000
     12      12.1685      0.00000
     13      12.8905      0.00000
     14      14.5619      0.00000
     15      15.9992      0.00000
     16      17.6985      0.00000
     17      18.9269      0.00000
     18      19.4369      0.00000
     19      20.2742      0.00000
     20      21.3554      0.00000

 k-point    10 :       0.3636    0.0909    0.0000
  band No.  band energies     occupation 
      1     -13.6171      2.00000
      2     -13.5564      2.00000
      3      -6.8161      2.00000
      4      -6.7601      2.00000
      5      -3.1196      2.00000
      6      -3.0794      2.00000
      7      -0.4373      2.00000
      8       0.1792      2.00000
      9       6.6908      0.00000
     10       7.2322      0.00000
     11      10.5728      0.00000
     12      11.8949      0.00000
     13      13.0615      0.00000
     14      15.1762      0.00000
     15      16.0007      0.00000
     16      17.5062      0.00000
     17      18.9539      0.00000
     18      20.5526      0.00000
     19      21.0515      0.00000
     20      21.5479      0.00000

 k-point    11 :       0.4545    0.0909    0.0000
  band No.  band energies     occupation 
      1     -13.1955      2.00000
      2     -13.1531      2.00000
      3      -7.4805      2.00000
      4      -7.4212      2.00000
      5      -3.2933      2.00000
      6      -3.2526      2.00000
      7       0.3537      2.00000
      8       0.6370      2.00000
      9       5.8310      0.00000
     10       6.4386      0.00000
     11      11.4370      0.00000
     12      11.6431      0.00000
     13      13.8661      0.00000
     14      14.5504      0.00000
     15      15.6425      0.00000
     16      16.8526      0.00000
     17      19.5327      0.00000
     18      20.8610      0.00000
     19      21.2072      0.00000
     20      22.5056      0.00000

 k-point    12 :       0.1818    0.1818    0.0000
  band No.  band energies     occupation 
      1     -14.5933      2.00000
      2     -14.5090      2.00000
      3      -4.6799      2.00000
      4      -4.6441      2.00000
      5      -2.9883      2.00000
      6      -2.9519      2.00000
      7      -1.9457      2.00000
      8      -1.0542      2.00000
      9       8.7674      0.00000
     10       8.9644      0.00000
     11       9.3180      0.00000
     12      13.8056      0.00000
     13      13.9473      0.00000
     14      14.3209      0.00000
     15      14.4116      0.00000
     16      16.0149      0.00000
     17      18.5331      0.00000
     18      19.0728      0.00000
     19      20.8399      0.00000
     20      21.3453      0.00000

 k-point    13 :       0.2727    0.1818    0.0000
  band No.  band energies     occupation 
      1     -13.7622      2.00000
      2     -13.6948      2.00000
      3      -6.0384      2.00000
      4      -5.9948      2.00000
      5      -3.8854      2.00000
      6      -3.8448      2.00000
      7      -0.6958      2.00000
      8       0.0133      2.00000
      9       7.3823      0.00000
     10       7.6942      0.00000
     11      10.5351      0.00000
     12      13.7037      0.00000
     13      14.3958      0.00000
     14      14.5912      0.00000
     15      15.7280      0.00000
     16      16.6214      0.00000
     17      17.2877      0.00000
     18      20.2224      0.00000
     19      20.2269      0.00000
     20      20.7500      0.00000

 k-point    14 :       0.3636    0.1818    0.0000
  band No.  band energies     occupation 
      1     -13.0975      2.00000
      2     -13.0519      2.00000
      3      -7.0442      2.00000
      4      -6.9901      2.00000
      5      -4.3257      2.00000
      6      -4.2813      2.00000
      7       0.4519      2.00000
      8       0.8288      2.00000
      9       6.1159      0.00000
     10       6.5338      0.00000
     11      12.2287      0.00000
     12      13.3424      0.00000
     13      14.4660      0.00000
     14      14.7332      0.00000
     15      15.5601      0.00000
     16      15.6845      0.00000
     17      18.8082      0.00000
     18      20.1902      0.00000
     19      20.3705      0.00000
     20      21.1853      0.00000

 k-point    15 :       0.2727    0.2727    0.0000
  band No.  band energies     occupation 
      1     -13.0745      2.00000
      2     -13.0258      2.00000
      3      -6.5587      2.00000
      4      -6.5196      2.00000
      5      -5.0411      2.00000
      6      -4.9999      2.00000
      7       0.4484      2.00000
      8       0.8972      2.00000
      9       6.4274      0.00000
     10       6.5749      0.00000
     11      12.3018      0.00000
     12      14.2143      0.00000
     13      14.6986      0.00000
     14      14.9326      0.00000
     15      15.5579      0.00000
     16      16.4512      0.00000
     17      17.5692      0.00000
     18      19.7788      0.00000
     19      20.0367      0.00000
     20      20.3987      0.00000

 k-point    16 :       0.3636    0.2727    0.0000
  band No.  band energies     occupation 
      1     -12.7625      2.00000
      2     -12.7258      2.00000
      3      -6.7619      2.00000
      4      -6.7150      2.00000
      5      -5.5111      2.00000
      6      -5.4663      2.00000
      7       1.0947      2.00000
      8       1.2438      2.00000
      9       5.9153      0.00000
     10       6.1067      0.00000
     11      13.8394      0.00000
     12      13.9548      0.00000
     13      14.1910      0.00000
     14      14.3270      0.00000
     15      15.5000      0.00000
     16      17.0239      0.00000
     17      18.8565      0.00000
     18      19.5340      0.00000
     19      19.9879      0.00000
     20      20.3641      0.00000

 k-point    17 :       0.0000    0.0000    0.3333
  band No.  band energies     occupation 
      1     -16.3407      2.00000
      2     -16.2783      2.00000
      3      -4.1850      2.00000
      4      -3.6365      2.00000
      5      -0.0621      2.00000
      6      -0.0620      2.00000
      7      -0.0271      2.00000
      8      -0.0270      2.00000
      9       6.7841      0.00000
     10       8.7022      0.00000
     11      12.7998      0.00000
     12      12.7999      0.00000
     13      12.8342      0.00000
     14      12.8342      0.00000
     15      13.1800      0.00000
     16      13.7998      0.00000
     17      15.4492      0.00000
     18      15.8403      0.00000
     19      21.1036      0.00000
     20      24.0065      0.00000

 k-point    18 :       0.0909   -0.0000    0.3333
  band No.  band energies     occupation 
      1     -16.1825      2.00000
      2     -16.1210      2.00000
      3      -3.9702      2.00000
      4      -3.4290      2.00000
      5      -0.7182      2.00000
      6      -0.6832      2.00000
      7      -0.3630      2.00000
      8      -0.3280      2.00000
      9       7.0501      0.00000
     10       8.8910      0.00000
     11      12.5992      0.00000
     12      12.7137      0.00000
     13      13.3439      0.00000
     14      13.4682      0.00000
     15      13.4942      0.00000
     16      13.5287      0.00000
     17      15.7756      0.00000
     18      15.8076      0.00000
     19      21.2696      0.00000
     20      23.8175      0.00000

 k-point    19 :       0.1818   -0.0000    0.3333
  band No.  band energies     occupation 
      1     -15.7183      2.00000
      2     -15.6596      2.00000
      3      -3.3392      2.00000
      4      -2.8262      2.00000
      5      -2.3247      2.00000
      6      -2.2886      2.00000
      7      -1.0714      2.00000
      8      -1.0362      2.00000
      9       7.7410      0.00000
     10       9.2672      0.00000
     11      12.0541      0.00000
     12      12.1162      0.00000
     13      12.6272      0.00000
     14      13.1702      0.00000
     15      15.3495      0.00000
     16      15.3850      0.00000
     17      16.2152      0.00000
     18      16.9079      0.00000
     19      21.5441      0.00000
     20      22.7552      0.00000

 k-point    20 :       0.2727    0.0000    0.3333
  band No.  band energies     occupation 
      1     -14.9895      2.00000
      2     -14.9354      2.00000
      3      -4.3002      2.00000
      4      -4.2637      2.00000
      5      -2.3207      2.00000
      6      -1.8477      2.00000
      7      -1.8470      2.00000
      8      -1.8125      2.00000
      9       8.5661      0.00000
     10       9.0918      0.00000
     11      10.4443      0.00000
     12      11.3860      0.00000
     13      12.3922      0.00000
     14      12.9915      0.00000
     15      17.2389      0.00000
     16      17.9035      0.00000
     17      17.9427      0.00000
     18      18.2048      0.00000
     19      20.6683      0.00000
     20      21.4614      0.00000

 k-point    21 :       0.3636   -0.0000    0.3333
  band No.  band energies     occupation 
      1     -14.1085      2.00000
      2     -14.0613      2.00000
      3      -6.1467      2.00000
      4      -6.1076      2.00000
      5      -2.4592      2.00000
      6      -2.4239      2.00000
      7      -1.0522      2.00000
      8      -0.6634      2.00000
      9       7.5927      0.00000
     10       7.8397      0.00000
     11      10.3111      0.00000
     12      11.1808      0.00000
     13      12.5444      0.00000
     14      13.6054      0.00000
     15      17.4018      0.00000
     16      18.4527      0.00000
     17      19.4312      0.00000
     18      20.6040      0.00000
     19      20.6558      0.00000
     20      20.9822      0.00000

 k-point    22 :       0.4545    0.0000    0.3333
  band No.  band energies     occupation 
      1     -13.3867      2.00000
      2     -13.3478      2.00000
      3      -7.3855      2.00000
      4      -7.3447      2.00000
      5      -2.7885      2.00000
      6      -2.7532      2.00000
      7       0.0965      2.00000
      8       0.3161      2.00000
      9       6.1275      0.00000
     10       6.4433      0.00000
     11      10.8742      0.00000
     12      11.0846      0.00000
     13      13.5385      0.00000
     14      14.5766      0.00000
     15      15.9833      0.00000
     16      17.0988      0.00000
     17      19.6548      0.00000
     18      21.1380      0.00000
     19      22.5492      0.00000
     20      22.6157      0.00000

 k-point    23 :       0.0909    0.0909    0.3333
  band No.  band energies     occupation 
      1     -15.8710      2.00000
      2     -15.8114      2.00000
      3      -3.5466      2.00000
      4      -3.0214      2.00000
      5      -1.7603      2.00000
      6      -1.7254      2.00000
      7      -0.9584      2.00000
      8      -0.9237      2.00000
      9       7.5346      0.00000
     10       9.1860      0.00000
     11      12.5617      0.00000
     12      12.6501      0.00000
     13      12.8455      0.00000
     14      13.0203      0.00000
     15      14.3953      0.00000
     16      14.4951      0.00000
     17      16.1865      0.00000
     18      16.7285      0.00000
     19      21.5050      0.00000
     20      23.0931      0.00000

 k-point    24 :       0.1818    0.0909    0.3333
  band No.  band energies     occupation 
      1     -15.2722      2.00000
      2     -15.2162      2.00000
      3      -3.4201      2.00000
      4      -3.3867      2.00000
      5      -2.7117      2.00000
      6      -2.2212      2.00000
      7      -1.8407      2.00000
      8      -1.8054      2.00000
      9       8.3531      0.00000
     10       9.3496      0.00000
     11      11.1214      0.00000
     12      12.0145      0.00000
     13      12.9389      0.00000
     14      13.0973      0.00000
     15      15.5304      0.00000
     16      15.7765      0.00000
     17      17.7979      0.00000
     18      18.4893      0.00000
     19      20.9980      0.00000
     20      21.6736      0.00000

 k-point    25 :       0.2727    0.0909    0.3333
  band No.  band energies     occupation 
      1     -14.4549      2.00000
      2     -14.4046      2.00000
      3      -5.2557      2.00000
      4      -5.2186      2.00000
      5      -2.6139      2.00000
      6      -2.5787      2.00000
      7      -1.5625      2.00000
      8      -1.1315      2.00000
      9       8.3798      0.00000
     10       8.5255      0.00000
     11      10.2454      0.00000
     12      11.7738      0.00000
     13      12.9216      0.00000
     14      13.3647      0.00000
     15      16.8728      0.00000
     16      17.5249      0.00000
     17      19.0625      0.00000
     18      19.4120      0.00000
     19      20.1671      0.00000
     20      21.2938      0.00000

 k-point    26 :       0.3636    0.0909    0.3333
  band No.  band energies     occupation 
      1     -13.6081      2.00000
      2     -13.5656      2.00000
      3      -6.8085      2.00000
      4      -6.7689      2.00000
      5      -3.1174      2.00000
      6      -3.0819      2.00000
      7      -0.2884      2.00000
      8       0.0212      2.00000
      9       6.7655      0.00000
     10       7.0282      0.00000
     11      11.1323      0.00000
     12      11.7805      0.00000
     13      13.2489      0.00000
     14      14.1613      0.00000
     15      16.5344      0.00000
     16      17.5119      0.00000
     17      18.7305      0.00000
     18      20.0908      0.00000
     19      21.5109      0.00000
     20      21.9239      0.00000

 k-point    27 :       0.4545    0.0909    0.3333
  band No.  band energies     occupation 
      1     -13.1927      2.00000
      2     -13.1559      2.00000
      3      -7.4718      2.00000
      4      -7.4312      2.00000
      5      -3.2909      2.00000
      6      -3.2553      2.00000
      7       0.4301      2.00000
      8       0.5758      2.00000
      9       5.9234      0.00000
     10       6.2232      0.00000
     11      11.5968      0.00000
     12      11.6933      0.00000
     13      14.1432      0.00000
     14      14.5936      0.00000
     15      15.5590      0.00000
     16      16.7027      0.00000
     17      18.8725      0.00000
     18      20.3760      0.00000
     19      21.9739      0.00000
     20      22.4184      0.00000

 k-point    28 :       0.1818    0.1818    0.3333
  band No.  band energies     occupation 
      1     -14.5772      2.00000
      2     -14.5258      2.00000
      3      -4.6800      2.00000
      4      -4.6463      2.00000
      5      -2.9876      2.00000
      6      -2.9534      2.00000
      7      -1.7399      2.00000
      8      -1.2957      2.00000
      9       8.7383      0.00000
     10       8.7449      0.00000
     11      10.3419      0.00000
     12      12.3077      0.00000
     13      13.8517      0.00000
     14      13.9380      0.00000
     15      15.5104      0.00000
     16      15.9161      0.00000
     17      18.6688      0.00000
     18      19.0936      0.00000
     19      20.4525      0.00000
     20      21.3636      0.00000

 k-point    29 :       0.2727    0.1818    0.3333
  band No.  band energies     occupation 
      1     -13.7511      2.00000
      2     -13.7062      2.00000
      3      -6.0350      2.00000
      4      -5.9993      2.00000
      5      -3.8831      2.00000
      6      -3.8478      2.00000
      7      -0.5279      2.00000
      8      -0.1729      2.00000
      9       7.4096      0.00000
     10       7.5508      0.00000
     11      11.3237      0.00000
     12      12.9120      0.00000
     13      14.2872      0.00000
     14      14.3617      0.00000
     15      16.0459      0.00000
     16      16.8734      0.00000
     17      17.3452      0.00000
     18      18.5814      0.00000
     19      21.0703      0.00000
     20      21.9352      0.00000

 k-point    30 :       0.3636    0.1818    0.3333
  band No.  band energies     occupation 
      1     -13.0936      2.00000
      2     -13.0558      2.00000
      3      -7.0371      2.00000
      4      -6.9982      2.00000
      5      -4.3220      2.00000
      6      -4.2856      2.00000
      7       0.5486      2.00000
      8       0.7401      2.00000
      9       6.1828      0.00000
     10       6.3898      0.00000
     11      12.6013      0.00000
     12      13.1665      0.00000
     13      14.3799      0.00000
     14      14.5120      0.00000
     15      15.5313      0.00000
     16      16.5927      0.00000
     17      17.9765      0.00000
     18      19.3572      0.00000
     19      20.8479      0.00000
     20      21.4238      0.00000

 k-point    31 :       0.2727    0.2727    0.3333
  band No.  band energies     occupation 
      1     -13.0696      2.00000
      2     -13.0309      2.00000
      3      -6.5566      2.00000
      4      -6.5223      2.00000
      5      -5.0386      2.00000
      6      -5.0034      2.00000
      7       0.5604      2.00000
      8       0.7871      2.00000
      9       6.4438      0.00000
     10       6.5124      0.00000
     11      12.6665      0.00000
     12      13.4923      0.00000
     13      14.8073      0.00000
     14      15.5494      0.00000
     15      15.6578      0.00000
     16      16.3631      0.00000
     17      17.5387      0.00000
     18      18.5529      0.00000
     19      20.1258      0.00000
     20      21.6161      0.00000

 k-point    32 :       0.3636    0.2727    0.3333
  band No.  band energies     occupation 
      1     -12.7619      2.00000
      2     -12.7264      2.00000
      3      -6.7568      2.00000
      4      -6.7204      2.00000
      5      -5.5075      2.00000
      6      -5.4712      2.00000
      7       1.1361      2.00000
      8       1.2171      2.00000
      9       5.9478      0.00000
     10       6.0401      0.00000
     11      13.1797      0.00000
     12      13.5611      0.00000
     13      14.5250      0.00000
     14      15.5529      0.00000
     15      15.8932      0.00000
     16      16.8493      0.00000
     17      18.2560      0.00000
     18      19.2570      0.00000
     19      19.6549      0.00000
     20      20.9347      0.00000


--------------------------------------------------------------------------------------------------------


 soft charge-density along one line, spin component           1
         0         1         2         3         4         5         6         7         8         9
 total charge-density along one line
 
 pseudopotential strength for first ion, spin component:           1
  6.448   9.818  -0.000  -0.000  -0.000  -0.000  -0.000  -0.000
  9.818  14.944  -0.000  -0.000  -0.000  -0.000  -0.000  -0.000
 -0.000  -0.000  -2.179  -0.000  -0.000  -3.706  -0.000  -0.000
 -0.000  -0.000  -0.000  -2.177  -0.000  -0.000  -3.699  -0.000
 -0.000  -0.000  -0.000  -0.000  -2.179  -0.000  -0.000  -3.706
 -0.000  -0.000  -3.706  -0.000  -0.000  -6.105  -0.000  -0.000
 -0.000  -0.000  -0.000  -3.699  -0.000  -0.000  -6.087  -0.000
 -0.000  -0.000  -0.000  -0.000  -3.706  -0.000  -0.000  -6.105
 total augmentation occupancy for first ion, spin component:           1
  4.195  -1.222   0.000   0.000   0.000   0.000   0.000   0.000
 -1.222   0.385  -0.000   0.000   0.000   0.000   0.000   0.000
 -0.000  -0.000   4.891   0.000   0.000  -1.471   0.000   0.000
  0.000   0.000   0.000   1.587   0.000  -0.000  -0.387   0.000
  0.000   0.000   0.000  -0.000   4.891   0.000   0.000  -1.471
  0.000   0.000  -1.471   0.000   0.000   0.458   0.000   0.000
  0.000   0.000  -0.000  -0.387   0.000   0.000   0.096  -0.000
  0.000   0.000   0.000  -0.000  -1.471   0.000   0.000   0.458


------------------------ aborting loop because EDIFF is reached ----------------------------------------


 


 total charge     
 
# of ion       s       p       d       tot
------------------------------------------
    1        0.740   1.413   0.000   2.153
    2        0.740   1.413   0.000   2.153
    3        1.225   2.786   0.000   4.011
    4        1.225   2.786   0.000   4.011
--------------------------------------------------
tot          3.930   8.398   0.000  12.329
 
    CHARGE:  cpu time    0.0038: real time    0.0038
    FORLOC:  cpu time    0.0001: real time    0.0001
    FORNL :  cpu time    0.0116: real time    0.0117
    STRESS:  cpu time    0.0969: real time    0.0977
    FORCOR:  cpu time    0.0018: real time    0.0019
    FORHAR:  cpu time    0.0006: real time    0.0006
    MIXING:  cpu time    0.0002: real time    0.0001
    OFIELD:  cpu time    0.0000: real time    0.0000

  FORCE on cell =-STRESS in cart. coord.  units (eV):
  Direction    XX          YY          ZZ          XY          YZ          ZX
  --------------------------------------------------------------------------------------
  Alpha Z    34.59384    34.59384    34.59384
  Ewald     121.29472   121.29472  -664.47690    -0.00000    -0.00000    -0.00000
  Hartree   223.90267   223.90267  -166.29116     0.00000     0.00000     0.00000
  E(xc)     -63.11403   -63.11403   -64.94541     0.00000    -0.00000     0.00000
  Local    -544.53870  -544.53795   600.41381     0.00000     0.00000    -0.00010
  n-local   -30.89756   -29.27500   -29.93797     0.11159    -0.00475     0.01621
  augment     2.17040     2.17027     2.52424    -0.00000     0.00000    -0.00000
  Kinetic   258.61242   253.01819   288.16317     2.40648     0.04924    -0.16080
  Fock        0.00000     0.00000     0.00000     0.00000     0.00000     0.00000
  -------------------------------------------------------------------------------------
  Total       0.03824     0.03824     0.04362     0.00000    -0.00000     0.00000
  in kB       1.48900     1.48900     1.69857     0.00000    -0.00000     0.00000
  external pressure =        1.56 kB  Pullay stress =        0.00 kB


 VOLUME and BASIS-vectors are now :
 -----------------------------------------------------------------------------
  energy-cutoff  :      500.00
  volume of cell :       41.15
      direct lattice vectors                 reciprocal lattice vectors
     1.256237318 -2.175866861  0.000000000     0.398013968 -0.229793472  0.000000000
     1.256237318  2.175866861  0.000000000     0.398013968  0.229793472  0.000000000
     0.000000000  0.000000000  7.526459174     0.000000000  0.000000000  0.132864602

  length of vectors
     2.512474636  2.512474636  7.526459174     0.459586943  0.459586943  0.132864602


 FORCES acting on ions
    electron-ion (+dipol)            ewald-force                    non-local-force                 convergence-correction
 -----------------------------------------------------------------------------------------------
   0.185E-13 -.121E-04 0.130E-14   0.466E-14 -.651E-11 -.139E-13   0.000E+00 0.555E-16 0.000E+00   0.984E-15 0.870E-07 0.361E-13
   -.620E-13 -.159E-04 -.243E-12   0.347E-14 0.130E-10 0.139E-13   -.278E-16 0.278E-15 0.000E+00   0.587E-15 0.934E-07 -.353E-13
   0.680E-13 -.705E-06 -.807E-12   -.352E-14 0.651E-11 -.231E-13   0.104E-16 -.139E-16 0.000E+00   -.196E-14 0.231E-06 0.681E-13
   0.186E-12 -.282E-05 -.359E-11   -.271E-14 -.130E-10 0.231E-13   0.347E-17 0.000E+00 0.000E+00   0.451E-14 0.244E-06 -.661E-13
 -----------------------------------------------------------------------------------------------
   0.211E-12 -.315E-04 -.464E-11   0.191E-14 0.202E-14 0.000E+00   -.139E-16 0.319E-15 0.000E+00   0.412E-14 0.655E-06 0.286E-14
 
 
 POSITION                                       TOTAL-FORCE (eV/Angst)
 -----------------------------------------------------------------------------------
      0.00000      0.00000      0.00000        -0.000000      0.000000      0.000000
      1.25624      0.72529      3.76323         0.000000     -0.000000      0.000000
      1.25624      0.72529      0.00000        -0.000000      0.000000      0.000000
      1.25624     -0.72529      3.76323        -0.000000      0.000000      0.000000
 -----------------------------------------------------------------------------------
    total drift:                                0.000000     -0.000031     -0.000000


--------------------------------------------------------------------------------------------------------



  FREE ENERGIE OF THE ION-ELECTRON SYSTEM (eV)
  ---------------------------------------------------
  free  energy   TOTEN  =       -35.19443349 eV

  energy  without entropy=      -35.19443349  energy(sigma->0) =      -35.19443349
 


--------------------------------------------------------------------------------------------------------


    POTLOK:  cpu time    0.0045: real time    0.0045


--------------------------------------------------------------------------------------------------------


 writing wavefunctions
     LOOP+:  cpu time    1.9557: real time    1.9786
    4ORBIT:  cpu time    0.0000: real time    0.0000
 


 total charge     
 
# of ion       s       p       d       tot
------------------------------------------
    1        0.740   1.413   0.000   2.153
    2        0.740   1.413   0.000   2.153
    3        1.225   2.786   0.000   4.011
    4        1.225   2.786   0.000   4.011
--------------------------------------------------
tot          3.930   8.398   0.000  12.329
 

 total amount of memory used by VASP MPI-rank0    36238. kBytes
=======================================================================

   base      :      30000. kBytes
   nonl-proj :       4492. kBytes
   fftplans  :        561. kBytes
   grid      :        600. kBytes
   one-center:         12. kBytes
   wavefun   :        573. kBytes
 
  
  
 General timing and accounting informations for this job:
 ========================================================
  
                  Total CPU time used (sec):        2.490
                            User time (sec):        2.181
                          System time (sec):        0.309
                         Elapsed time (sec):        2.802
  
                   Maximum memory used (kb):       74064.
                   Average memory used (kb):           0.
  
                          Minor page faults:        10632
                          Major page faults:            8
                 Voluntary context switches:         3416
