 vasp.5.4.4.18Apr17-6-g9f103f2a35 (build May 10 2019 17:57:18) complex          
  
 executed on             LinuxIFC date 2024.07.15  18:29:49
 running on   20 total cores
 distrk:  each k-point on   20 cores,    1 groups
 distr:  one band on NCORES_PER_BAND=   1 cores,   20 groups


--------------------------------------------------------------------------------------------------------


 INCAR:
 POTCAR:    PAW_PBE B 06Sep2000                   
 POTCAR:    PAW_PBE N 08Apr2002                   

 ----------------------------------------------------------------------------- 
|                                                                             |
|           W    W    AA    RRRRR   N    N  II  N    N   GGGG   !!!           |
|           W    W   A  A   R    R  NN   N  II  NN   N  G    G  !!!           |
|           W    W  A    A  R    R  N N  N  II  N N  N  G       !!!           |
|           W WW W  AAAAAA  RRRRR   N  N N  II  N  N N  G  GGG   !            |
|           WW  WW  A    A  R   R   N   NN  II  N   NN  G    G                |
|           W    W  A    A  R    R  N    N  II  N    N   GGGG   !!!           |
|                                                                             |
|      For optimal performance we recommend to set                            |
|        NCORE= 4 - approx SQRT( number of cores)                             |
|      NCORE specifies how many cores store one orbital (NPAR=cpu/NCORE).     |
|      This setting can  greatly improve the performance of VASP for DFT.     |
|      The default,   NCORE=1            might be grossly inefficient         |
|      on modern multi-core architectures or massively parallel machines.     |
|      Do your own testing !!!!                                               |
|      Unfortunately you need to use the default for GW and RPA calculations. |
|      (for HF NCORE is supported but not extensively tested yet)             |
|                                                                             |
 ----------------------------------------------------------------------------- 

 POTCAR:    PAW_PBE B 06Sep2000                   
   SHA256 =  a32ced30f5ae56fd4d10b4325ff17eb3e4e38ee0f4288bc219fb012fddfa6e97 B/
   COPYR  = (c) Copyright 06Sep2000 Georg Kresse                                
   COPYR  = This file is part of the software VASP. Any use, copying, and all ot
   COPYR  = If you do not have a valid VASP license, you may not use, copy or di
   VRHFIN =B: s2p1                                                              
   LEXCH  = PE                                                                  
   EATOM  =    71.1703 eV,    5.2309 Ry                                         
                                                                                
   TITEL  = PAW_PBE B 06Sep2000                                                 
   LULTRA =        F    use ultrasoft PP ?                                      
   IUNSCR =        1    unscreen: 0-lin 1-nonlin 2-no                           
   RPACOR =    1.200    partial core radius                                     
   POMASS =   10.811; ZVAL   =    3.000    mass and valenz                      
   RCORE  =    1.700    outmost cutoff radius                                   
   RWIGS  =    1.710; RWIGS  =    0.905    wigner-seitz radius (au A)           
   ENMAX  =  318.614; ENMIN  =  238.960 eV                                      
   ICORE  =        2    local potential                                         
   LCOR   =        T    correct aug charges                                     
   LPAW   =        T    paw PP                                                  
   EAUG   =  535.514                                                            
   DEXC   =    0.000                                                            
   RMAX   =    1.732    core radius for proj-oper                               
   RAUG   =    1.300    factor for augmentation sphere                          
   RDEP   =    1.757    radius for radial grids                                 
   RDEPT  =    1.436    core radius for aug-charge                              
                                                                                
   Atomic configuration                                                         
    4 entries                                                                   
     n  l   j            E        occ.                                          
     1  0  0.50      -180.5896   2.0000                                         
     2  0  0.50        -9.4431   2.0000                                         
     2  1  0.50        -3.6068   1.0000                                         
     3  2  1.50        -4.0817   0.0000                                         
   Description                                                                  
     l       E           TYP  RCUT    TYP  RCUT                                 
     0     -9.4430752     23  1.500                                             
     0      0.8675899     23  1.500                                             
     1     -3.6067955     23  1.700                                             
     1      6.1086146     23  1.700                                             
     2     -4.0817478      7  1.700                                             
  local pseudopotential read in
  partial core-charges read in
  partial kinetic energy density read in
  atomic valenz-charges read in
  non local Contribution for L=           0  read in
    real space projection operators read in
  non local Contribution for L=           0  read in
    real space projection operators read in
  non local Contribution for L=           1  read in
    real space projection operators read in
  non local Contribution for L=           1  read in
    real space projection operators read in
    PAW grid and wavefunctions read in
 
   number of l-projection  operators is LMAX  =           4
   number of lm-projection operators is LMMAX =           8
 
 POTCAR:    PAW_PBE N 08Apr2002                   
   SHA256 =  e053789ff3a61a86a1b75d8a110fcc91f86041011e7b0817c7c99e4e8a6349d7 N/
   COPYR  = (c) Copyright 08Apr2002 Georg Kresse                                
   COPYR  = This file is part of the software VASP. Any use, copying, and all ot
   COPYR  = If you do not have a valid VASP license, you may not use, copy or di
   VRHFIN =N: s2p3                                                              
   LEXCH  = PE                                                                  
   EATOM  =   264.5486 eV,   19.4438 Ry                                         
                                                                                
   TITEL  = PAW_PBE N 08Apr2002                                                 
   LULTRA =        F    use ultrasoft PP ?                                      
   IUNSCR =        1    unscreen: 0-lin 1-nonlin 2-no                           
   RPACOR =    1.200    partial core radius                                     
   POMASS =   14.001; ZVAL   =    5.000    mass and valenz                      
   RCORE  =    1.500    outmost cutoff radius                                   
   RWIGS  =    1.400; RWIGS  =    0.741    wigner-seitz radius (au A)           
   ENMAX  =  400.000; ENMIN  =  300.000 eV                                      
   ICORE  =        2    local potential                                         
   LCOR   =        T    correct aug charges                                     
   LPAW   =        T    paw PP                                                  
   EAUG   =  627.112                                                            
   DEXC   =    0.000                                                            
   RMAX   =    1.529    core radius for proj-oper                               
   RAUG   =    1.300    factor for augmentation sphere                          
   RDEP   =    1.514    radius for radial grids                                 
   RDEPT  =    1.338    core radius for aug-charge                              
                                                                                
   Atomic configuration                                                         
    4 entries                                                                   
     n  l   j            E        occ.                                          
     1  0  0.50      -384.7179   2.0000                                         
     2  0  0.50       -18.5828   2.0000                                         
     2  1  0.50        -7.0898   3.0000                                         
     3  2  1.50        -6.8029   0.0000                                         
   Description                                                                  
     l       E           TYP  RCUT    TYP  RCUT                                 
     0    -18.5828119     23  1.200                                             
     0    -13.5018863     23  1.200                                             
     1     -7.0897853     23  1.500                                             
     1      9.5240782     23  1.500                                             
     2     -6.8029130      7  1.500                                             
  local pseudopotential read in
  partial core-charges read in
  partial kinetic energy density read in
  atomic valenz-charges read in
  non local Contribution for L=           0  read in
    real space projection operators read in
  non local Contribution for L=           0  read in
    real space projection operators read in
  non local Contribution for L=           1  read in
    real space projection operators read in
  non local Contribution for L=           1  read in
    real space projection operators read in
    PAW grid and wavefunctions read in
 
   number of l-projection  operators is LMAX  =           4
   number of lm-projection operators is LMMAX =           8
 
  PAW_PBE B 06Sep2000                   :
 energy of atom  1       EATOM=  -71.1703
 kinetic energy error for atom=    0.0012 (will be added to EATOM!!)
  PAW_PBE N 08Apr2002                   :
 energy of atom  2       EATOM= -264.5486
 kinetic energy error for atom=    0.0138 (will be added to EATOM!!)
 
 
 POSCAR: B2 N2                                   
  positions in direct lattice
  velocities in cartesian coordinates
 exchange correlation table for  LEXCH =        8
   RHO(1)=    0.500       N(1)  =     2000
   RHO(2)=  100.500       N(2)  =     4000
 


--------------------------------------------------------------------------------------------------------


 ion  position               nearest neighbor table
   1  0.000  0.000  0.000-   3 1.45   3 1.45   3 1.45
   2  0.333  0.667  0.500-   4 1.45   4 1.45   4 1.45
   3  0.333  0.667  0.000-   1 1.45   1 1.45   1 1.45
   4  0.667  0.333  0.500-   2 1.45   2 1.45   2 1.45
 
  LATTYP: Found a hexagonal cell.
 ALAT       =     2.5124746362
 C/A-ratio  =     2.9956358826
  
  Lattice vectors:
  
 A1 = (   1.2562373181,  -2.1758668613,   0.0000000000)
 A2 = (   1.2562373181,   2.1758668613,   0.0000000000)
 A3 = (   0.0000000000,   0.0000000000,   7.5264591742)


Analysis of symmetry for initial positions (statically):
=====================================================================
 Subroutine PRICEL returns:
 Original cell was already a primitive cell.
 

 Routine SETGRP: Setting up the symmetry group for a 
 hexagonal supercell.


 Subroutine GETGRP returns: Found 12 space group operations
 (whereof 12 operations were pure point group operations)
 out of a pool of 24 trial point group operations.


The static configuration has the point symmetry D_3h.


Analysis of symmetry for dynamics (positions and initial velocities):
=====================================================================
 Subroutine PRICEL returns:
 Original cell was already a primitive cell.
 

 Routine SETGRP: Setting up the symmetry group for a 
 hexagonal supercell.


 Subroutine GETGRP returns: Found 12 space group operations
 (whereof 12 operations were pure point group operations)
 out of a pool of 24 trial point group operations.


The dynamic configuration has the point symmetry D_3h.


 Subroutine INISYM returns: Found 12 space group operations
 (whereof 12 operations are pure point group operations),
 and found     1 'primitive' translations

 
 
 KPOINTS: A                                       

Automatic generation of k-mesh.
Space group operators:
 irot       det(A)        alpha          n_x          n_y          n_z        tau_x        tau_y        tau_z
    1     1.000000     0.000000     1.000000     0.000000     0.000000     0.000000     0.000000     0.000000
    2    -1.000000    60.000000     0.000000     0.000000    -1.000000     0.000000     0.000000     0.000000
    3     1.000000   120.000000     0.000000     0.000000    -1.000000     0.000000     0.000000     0.000000
    4    -1.000000   180.000000     0.000000     0.000000     1.000000     0.000000     0.000000     0.000000
    5     1.000000   120.000000     0.000000     0.000000     1.000000     0.000000     0.000000     0.000000
    6    -1.000000    60.000000     0.000000     0.000000     1.000000     0.000000     0.000000     0.000000
    7    -1.000000   180.000000     0.500000    -0.866025     0.000000     0.000000     0.000000     0.000000
    8     1.000000   180.000000     0.000000     1.000000     0.000000     0.000000     0.000000     0.000000
    9    -1.000000   180.000000    -0.500000    -0.866025     0.000000     0.000000     0.000000     0.000000
   10     1.000000   180.000000     0.866025     0.500000     0.000000     0.000000     0.000000     0.000000
   11    -1.000000   180.000000     1.000000     0.000000     0.000000     0.000000     0.000000     0.000000
   12     1.000000   180.000000     0.866025    -0.500000     0.000000     0.000000     0.000000     0.000000
 
 Subroutine IBZKPT returns following result:
 ===========================================
 
 Found     42 irreducible k-points:
 
 Following reciprocal coordinates:
            Coordinates               Weight
  0.000000  0.000000  0.000000      1.000000
  0.076923  0.000000  0.000000      6.000000
  0.153846  0.000000  0.000000      6.000000
  0.230769  0.000000  0.000000      6.000000
  0.307692 -0.000000  0.000000      6.000000
  0.384615  0.000000  0.000000      6.000000
  0.461538  0.000000  0.000000      6.000000
  0.076923  0.076923  0.000000      6.000000
  0.153846  0.076923  0.000000     12.000000
  0.230769  0.076923  0.000000     12.000000
  0.307692  0.076923  0.000000     12.000000
  0.384615  0.076923  0.000000     12.000000
  0.461538  0.076923  0.000000      6.000000
  0.153846  0.153846  0.000000      6.000000
  0.230769  0.153846  0.000000     12.000000
  0.307692  0.153846  0.000000     12.000000
  0.384615  0.153846  0.000000     12.000000
  0.230769  0.230769  0.000000      6.000000
  0.307692  0.230769  0.000000     12.000000
  0.384615  0.230769  0.000000      6.000000
  0.307692  0.307692  0.000000      6.000000
  0.000000  0.000000  0.333333      2.000000
  0.076923  0.000000  0.333333     12.000000
  0.153846  0.000000  0.333333     12.000000
  0.230769  0.000000  0.333333     12.000000
  0.307692 -0.000000  0.333333     12.000000
  0.384615  0.000000  0.333333     12.000000
  0.461538  0.000000  0.333333     12.000000
  0.076923  0.076923  0.333333     12.000000
  0.153846  0.076923  0.333333     24.000000
  0.230769  0.076923  0.333333     24.000000
  0.307692  0.076923  0.333333     24.000000
  0.384615  0.076923  0.333333     24.000000
  0.461538  0.076923  0.333333     12.000000
  0.153846  0.153846  0.333333     12.000000
  0.230769  0.153846  0.333333     24.000000
  0.307692  0.153846  0.333333     24.000000
  0.384615  0.153846  0.333333     24.000000
  0.230769  0.230769  0.333333     12.000000
  0.307692  0.230769  0.333333     24.000000
  0.384615  0.230769  0.333333     12.000000
  0.307692  0.307692  0.333333     12.000000
 
 Following cartesian coordinates:
            Coordinates               Weight
  0.000000  0.000000  0.000000      1.000000
  0.030616 -0.017676  0.000000      6.000000
  0.061233 -0.035353  0.000000      6.000000
  0.091849 -0.053029  0.000000      6.000000
  0.122466 -0.070706  0.000000      6.000000
  0.153082 -0.088382  0.000000      6.000000
  0.183699 -0.106059  0.000000      6.000000
  0.061233  0.000000  0.000000      6.000000
  0.091849 -0.017676  0.000000     12.000000
  0.122466 -0.035353  0.000000     12.000000
  0.153082 -0.053029  0.000000     12.000000
  0.183699 -0.070706  0.000000     12.000000
  0.214315 -0.088382  0.000000      6.000000
  0.122466  0.000000  0.000000      6.000000
  0.153082 -0.017676  0.000000     12.000000
  0.183699 -0.035353  0.000000     12.000000
  0.214315 -0.053029  0.000000     12.000000
  0.183699  0.000000  0.000000      6.000000
  0.214315 -0.017676  0.000000     12.000000
  0.244932 -0.035353  0.000000      6.000000
  0.244932  0.000000  0.000000      6.000000
  0.000000  0.000000  0.044288      2.000000
  0.030616 -0.017676  0.044288     12.000000
  0.061233 -0.035353  0.044288     12.000000
  0.091849 -0.053029  0.044288     12.000000
  0.122466 -0.070706  0.044288     12.000000
  0.153082 -0.088382  0.044288     12.000000
  0.183699 -0.106059  0.044288     12.000000
  0.061233  0.000000  0.044288     12.000000
  0.091849 -0.017676  0.044288     24.000000
  0.122466 -0.035353  0.044288     24.000000
  0.153082 -0.053029  0.044288     24.000000
  0.183699 -0.070706  0.044288     24.000000
  0.214315 -0.088382  0.044288     12.000000
  0.122466  0.000000  0.044288     12.000000
  0.153082 -0.017676  0.044288     24.000000
  0.183699 -0.035353  0.044288     24.000000
  0.214315 -0.053029  0.044288     24.000000
  0.183699  0.000000  0.044288     12.000000
  0.214315 -0.017676  0.044288     24.000000
  0.244932 -0.035353  0.044288     12.000000
  0.244932  0.000000  0.044288     12.000000
 


--------------------------------------------------------------------------------------------------------




 Dimension of arrays:
   k-points           NKPTS =     42   k-points in BZ     NKDIM =     42   number of bands    NBANDS=     20
   number of dos      NEDOS =    301   number of ions     NIONS =      4
   non local maximal  LDIM  =      4   non local SUM 2l+1 LMDIM =      8
   total plane-waves  NPLWV =   8232
   max r-space proj   IRMAX =      1   max aug-charges    IRDMAX=  25156
   dimension x,y,z NGX =    14 NGY =   14 NGZ =   42
   dimension x,y,z NGXF=    28 NGYF=   28 NGZF=   84
   support grid    NGXF=    56 NGYF=   56 NGZF=  168
   ions per type =               2   2
   NGX,Y,Z   is equivalent  to a cutoff of   9.26,  9.26,  9.28 a.u.
   NGXF,Y,Z  is equivalent  to a cutoff of  18.53, 18.53, 18.55 a.u.

 SYSTEM =  BN                                      
 POSCAR =  B2 N2                                   

 Startparameter for this run:
   NWRITE =      2    write-flag & timer
   PREC   = normal    normal or accurate (medium, high low for compatibility)
   ISTART =      1    job   : 0-new  1-cont  2-samecut
   ICHARG =      0    charge: 1-file 2-atom 10-const
   ISPIN  =      1    spin polarized calculation?
   LNONCOLLINEAR =      F non collinear calculations
   LSORBIT =      F    spin-orbit coupling
   INIWAV =      1    electr: 0-lowe 1-rand  2-diag
   LASPH  =      F    aspherical Exc in radial PAW
   METAGGA=      F    non-selfconsistent MetaGGA calc.

 Electronic Relaxation 1
   ENCUT  =  500.0 eV  36.75 Ry    6.06 a.u.   4.58  4.58 13.72*2*pi/ulx,y,z
   ENINI  =  500.0     initial cutoff
   ENAUG  =  627.1 eV  augmentation charge cutoff
   NELM   =     60;   NELMIN=  2; NELMDL=  0     # of ELM steps 
   EDIFF  = 0.1E-03   stopping-criterion for ELM
   LREAL  =      F    real-space projection
   NLSPLINE    = F    spline interpolate recip. space projectors
   LCOMPAT=      F    compatible to vasp.4.4
   GGA_COMPAT  = T    GGA compatible to vasp.4.4-vasp.4.6
   LMAXPAW     = -100 max onsite density
   LMAXMIX     =    2 max onsite mixed and CHGCAR
   VOSKOWN=      0    Vosko Wilk Nusair interpolation
   ROPT   =    0.00000   0.00000
 Ionic relaxation
   EDIFFG = 0.1E-02   stopping-criterion for IOM
   NSW    =      0    number of steps for IOM
   NBLOCK =      1;   KBLOCK =      1    inner block; outer block 
   IBRION =     -1    ionic relax: 0-MD 1-quasi-New 2-CG
   NFREE  =      0    steps in history (QN), initial steepest desc. (CG)
   ISIF   =      2    stress and relaxation
   IWAVPR =     10    prediction:  0-non 1-charg 2-wave 3-comb
   ISYM   =      2    0-nonsym 1-usesym 2-fastsym
   LCORR  =      T    Harris-Foulkes like correction to forces

   POTIM  = 0.5000    time-step for ionic-motion
   TEIN   =    0.0    initial temperature
   TEBEG  =    0.0;   TEEND  =   0.0 temperature during run
   SMASS  =  -3.00    Nose mass-parameter (am)
   estimated Nose-frequenzy (Omega)   =  0.10E-29 period in steps =****** mass=  -0.144E-27a.u.
   SCALEE = 1.0000    scale energy and forces
   NPACO  =    256;   APACO  = 16.0  distance and # of slots for P.C.
   PSTRESS=    0.0 pullay stress

  Mass of Ions in am
   POMASS =  10.81 14.00
  Ionic Valenz
   ZVAL   =   3.00  5.00
  Atomic Wigner-Seitz radii
   RWIGS  =  -1.00 -1.00
  virtual crystal weights 
   VCA    =   1.00  1.00
   NELECT =      16.0000    total number of electrons
   NUPDOWN=      -1.0000    fix difference up-down

 DOS related values:
   EMIN   =  10.00;   EMAX   =-10.00  energy-range for DOS
   EFERMI =   0.00
   ISMEAR =     0;   SIGMA  =   0.05  broadening in eV -4-tet -1-fermi 0-gaus

 Electronic relaxation 2 (details)
   IALGO  =     38    algorithm
   LDIAG  =      T    sub-space diagonalisation (order eigenvalues)
   LSUBROT=      F    optimize rotation matrix (better conditioning)
   TURBO    =      0    0=normal 1=particle mesh
   IRESTART =      0    0=no restart 2=restart with 2 vectors
   NREBOOT  =      0    no. of reboots
   NMIN     =      0    reboot dimension
   EREF     =   0.00    reference energy to select bands
   IMIX   =      4    mixing-type and parameters
     AMIX     =   0.40;   BMIX     =  1.00
     AMIX_MAG =   1.60;   BMIX_MAG =  1.00
     AMIN     =   0.10
     WC   =   100.;   INIMIX=   1;  MIXPRE=   1;  MAXMIX= -45

 Intra band minimization:
   WEIMIN = 0.0000     energy-eigenvalue tresh-hold
   EBREAK =  0.13E-05  absolut break condition
   DEPER  =   0.30     relativ break condition  

   TIME   =   0.40     timestep for ELM

  volume/ion in A,a.u.               =      10.29        69.42
  Fermi-wavevector in a.u.,A,eV,Ry     =   1.194923  2.258077 19.426956  1.427841
  Thomas-Fermi vector in A             =   2.330901
 
 Write flags
   LWAVE        =      T    write WAVECAR
   LDOWNSAMPLE  =      F    k-point downsampling of WAVECAR
   LCHARG       =      T    write CHGCAR
   LVTOT        =      F    write LOCPOT, total local potential
   LVHAR        =      F    write LOCPOT, Hartree potential only
   LELF         =      F    write electronic localiz. function (ELF)
   LORBIT       =     11    0 simple, 1 ext, 2 COOP (PROOUT), +10 PAW based schemes


 Dipole corrections
   LMONO  =      F    monopole corrections only (constant potential shift)
   LDIPOL =      F    correct potential (dipole corrections)
   IDIPOL =      0    1-x, 2-y, 3-z, 4-all directions 
   EPSILON=  1.0000000 bulk dielectric constant

 Exchange correlation treatment:
   GGA     =    --    GGA type
   LEXCH   =     8    internal setting for exchange type
   VOSKOWN=      0    Vosko Wilk Nusair interpolation
   LHFCALC =     F    Hartree Fock is set to
   LHFONE  =     F    Hartree Fock one center treatment
   AEXX    =    0.0000 exact exchange contribution

 Linear response parameters
   LEPSILON=     F    determine dielectric tensor
   LRPA    =     F    only Hartree local field effects (RPA)
   LNABLA  =     F    use nabla operator in PAW spheres
   LVEL    =     F    velocity operator in full k-point grid
   LINTERFAST=   F  fast interpolation
   KINTER  =     0    interpolate to denser k-point grid
   CSHIFT  =0.1000    complex shift for real part using Kramers Kronig
   OMEGAMAX=  -1.0    maximum frequency
   DEG_THRESHOLD= 0.2000000E-02 threshold for treating states as degnerate
   RTIME   =   -0.100 relaxation time in fs
  (WPLASMAI=    0.000 imaginary part of plasma frequency in eV, 0.658/RTIME)
   DFIELD  = 0.0000000 0.0000000 0.0000000 field for delta impulse in time
 
 Orbital magnetization related:
   ORBITALMAG=     F  switch on orbital magnetization
   LCHIMAG   =     F  perturbation theory with respect to B field
   DQ        =  0.001000  dq finite difference perturbation B field
   LLRAUG    =     F  two centre corrections for induced B field



--------------------------------------------------------------------------------------------------------


 Static calculation
 charge density and potential will be updated during run
 non-spin polarized calculation
 Variant of blocked Davidson
 Davidson routine will perform the subspace rotation
 perform sub-space diagonalisation
    after iterative eigenvector-optimisation
 modified Broyden-mixing scheme, WC =      100.0
 initial mixing is a Kerker type mixing with AMIX =  0.4000 and BMIX =      1.0000
 Hartree-type preconditioning will be used
 using additional bands           12
 reciprocal scheme for non local part
 use partial core corrections
 calculate Harris-corrections to forces 
   (improved forces if not selfconsistent)
 use gradient corrections 
 use of overlap-Matrix (Vanderbilt PP)
 Gauss-broadening in eV      SIGMA  =   0.05


--------------------------------------------------------------------------------------------------------


  energy-cutoff  :      500.00
  volume of cell :       41.15
      direct lattice vectors                 reciprocal lattice vectors
     1.256237318 -2.175866861  0.000000000     0.398013968 -0.229793472  0.000000000
     1.256237318  2.175866861  0.000000000     0.398013968  0.229793472  0.000000000
     0.000000000  0.000000000  7.526459174     0.000000000  0.000000000  0.132864602

  length of vectors
     2.512474636  2.512474636  7.526459174     0.459586943  0.459586943  0.132864602


 
 old parameters found on file WAVECAR:
  energy-cutoff  :      500.00
  volume of cell :       41.15
      direct lattice vectors                 reciprocal lattice vectors
     1.256237318 -2.175866861  0.000000000     0.398013968 -0.229793472  0.000000000
     1.256237318  2.175866861  0.000000000     0.398013968  0.229793472  0.000000000
     0.000000000  0.000000000  7.526459174     0.000000000  0.000000000  0.132864602

  length of vectors

 
 k-points in units of 2pi/SCALE and weight: A                                       
   0.00000000  0.00000000  0.00000000       0.002
   0.03061646 -0.01767642  0.00000000       0.012
   0.06123292 -0.03535284  0.00000000       0.012
   0.09184938 -0.05302926  0.00000000       0.012
   0.12246584 -0.07070568  0.00000000       0.012
   0.15308230 -0.08838210  0.00000000       0.012
   0.18369875 -0.10605853  0.00000000       0.012
   0.06123292  0.00000000  0.00000000       0.012
   0.09184938 -0.01767642  0.00000000       0.024
   0.12246584 -0.03535284  0.00000000       0.024
   0.15308230 -0.05302926  0.00000000       0.024
   0.18369875 -0.07070568  0.00000000       0.024
   0.21431521 -0.08838210  0.00000000       0.012
   0.12246584  0.00000000  0.00000000       0.012
   0.15308230 -0.01767642  0.00000000       0.024
   0.18369875 -0.03535284  0.00000000       0.024
   0.21431521 -0.05302926  0.00000000       0.024
   0.18369875  0.00000000  0.00000000       0.012
   0.21431521 -0.01767642  0.00000000       0.024
   0.24493167 -0.03535284  0.00000000       0.012
   0.24493167  0.00000000  0.00000000       0.012
   0.00000000  0.00000000  0.04428820       0.004
   0.03061646 -0.01767642  0.04428820       0.024
   0.06123292 -0.03535284  0.04428820       0.024
   0.09184938 -0.05302926  0.04428820       0.024
   0.12246584 -0.07070568  0.04428820       0.024
   0.15308230 -0.08838210  0.04428820       0.024
   0.18369875 -0.10605853  0.04428820       0.024
   0.06123292  0.00000000  0.04428820       0.024
   0.09184938 -0.01767642  0.04428820       0.047
   0.12246584 -0.03535284  0.04428820       0.047
   0.15308230 -0.05302926  0.04428820       0.047
   0.18369875 -0.07070568  0.04428820       0.047
   0.21431521 -0.08838210  0.04428820       0.024
   0.12246584  0.00000000  0.04428820       0.024
   0.15308230 -0.01767642  0.04428820       0.047
   0.18369875 -0.03535284  0.04428820       0.047
   0.21431521 -0.05302926  0.04428820       0.047
   0.18369875  0.00000000  0.04428820       0.024
   0.21431521 -0.01767642  0.04428820       0.047
   0.24493167 -0.03535284  0.04428820       0.024
   0.24493167  0.00000000  0.04428820       0.024
 
 k-points in reciprocal lattice and weights: A                                       
   0.00000000  0.00000000  0.00000000       0.002
   0.07692308  0.00000000  0.00000000       0.012
   0.15384615  0.00000000  0.00000000       0.012
   0.23076923  0.00000000  0.00000000       0.012
   0.30769231 -0.00000000  0.00000000       0.012
   0.38461538  0.00000000  0.00000000       0.012
   0.46153846  0.00000000  0.00000000       0.012
   0.07692308  0.07692308  0.00000000       0.012
   0.15384615  0.07692308  0.00000000       0.024
   0.23076923  0.07692308  0.00000000       0.024
   0.30769231  0.07692308  0.00000000       0.024
   0.38461538  0.07692308  0.00000000       0.024
   0.46153846  0.07692308  0.00000000       0.012
   0.15384615  0.15384615  0.00000000       0.012
   0.23076923  0.15384615  0.00000000       0.024
   0.30769231  0.15384615  0.00000000       0.024
   0.38461538  0.15384615  0.00000000       0.024
   0.23076923  0.23076923  0.00000000       0.012
   0.30769231  0.23076923  0.00000000       0.024
   0.38461538  0.23076923  0.00000000       0.012
   0.30769231  0.30769231  0.00000000       0.012
   0.00000000  0.00000000  0.33333333       0.004
   0.07692308  0.00000000  0.33333333       0.024
   0.15384615  0.00000000  0.33333333       0.024
   0.23076923  0.00000000  0.33333333       0.024
   0.30769231 -0.00000000  0.33333333       0.024
   0.38461538  0.00000000  0.33333333       0.024
   0.46153846  0.00000000  0.33333333       0.024
   0.07692308  0.07692308  0.33333333       0.024
   0.15384615  0.07692308  0.33333333       0.047
   0.23076923  0.07692308  0.33333333       0.047
   0.30769231  0.07692308  0.33333333       0.047
   0.38461538  0.07692308  0.33333333       0.047
   0.46153846  0.07692308  0.33333333       0.024
   0.15384615  0.15384615  0.33333333       0.024
   0.23076923  0.15384615  0.33333333       0.047
   0.30769231  0.15384615  0.33333333       0.047
   0.38461538  0.15384615  0.33333333       0.047
   0.23076923  0.23076923  0.33333333       0.024
   0.30769231  0.23076923  0.33333333       0.047
   0.38461538  0.23076923  0.33333333       0.024
   0.30769231  0.30769231  0.33333333       0.024
 
 position of ions in fractional coordinates (direct lattice) 
   0.00000000  0.00000000  0.00000000
   0.33333333  0.66666667  0.50000000
   0.33333333  0.66666667  0.00000000
   0.66666667  0.33333333  0.50000000
 
 position of ions in cartesian coordinates  (Angst):
   0.00000000  0.00000000  0.00000000
   1.25623732  0.72528895  3.76322959
   1.25623732  0.72528895  0.00000000
   1.25623732 -0.72528895  3.76322959
 


--------------------------------------------------------------------------------------------------------


 k-point  1 :   0.0000 0.0000 0.0000  plane waves:    1041
 k-point  2 :   0.0769 0.0000 0.0000  plane waves:    1064
 k-point  3 :   0.1538 0.0000 0.0000  plane waves:    1058
 k-point  4 :   0.2308 0.0000 0.0000  plane waves:    1062
 k-point  5 :   0.3077-0.0000 0.0000  plane waves:    1060
 k-point  6 :   0.3846 0.0000 0.0000  plane waves:    1040
 k-point  7 :   0.4615 0.0000 0.0000  plane waves:    1038
 k-point  8 :   0.0769 0.0769 0.0000  plane waves:    1055
 k-point  9 :   0.1538 0.0769 0.0000  plane waves:    1056
 k-point 10 :   0.2308 0.0769 0.0000  plane waves:    1054
 k-point 11 :   0.3077 0.0769 0.0000  plane waves:    1048
 k-point 12 :   0.3846 0.0769 0.0000  plane waves:    1039
 k-point 13 :   0.4615 0.0769 0.0000  plane waves:    1030
 k-point 14 :   0.1538 0.1538 0.0000  plane waves:    1049
 k-point 15 :   0.2308 0.1538 0.0000  plane waves:    1041
 k-point 16 :   0.3077 0.1538 0.0000  plane waves:    1039
 k-point 17 :   0.3846 0.1538 0.0000  plane waves:    1041
 k-point 18 :   0.2308 0.2308 0.0000  plane waves:    1031
 k-point 19 :   0.3077 0.2308 0.0000  plane waves:    1028
 k-point 20 :   0.3846 0.2308 0.0000  plane waves:    1026
 k-point 21 :   0.3077 0.3077 0.0000  plane waves:    1026
 k-point 22 :   0.0000 0.0000 0.3333  plane waves:    1054
 k-point 23 :   0.0769 0.0000 0.3333  plane waves:    1050
 k-point 24 :   0.1538 0.0000 0.3333  plane waves:    1060
 k-point 25 :   0.2308 0.0000 0.3333  plane waves:    1054
 k-point 26 :   0.3077-0.0000 0.3333  plane waves:    1049
 k-point 27 :   0.3846 0.0000 0.3333  plane waves:    1044
 k-point 28 :   0.4615 0.0000 0.3333  plane waves:    1040
 k-point 29 :   0.0769 0.0769 0.3333  plane waves:    1056
 k-point 30 :   0.1538 0.0769 0.3333  plane waves:    1055
 k-point 31 :   0.2308 0.0769 0.3333  plane waves:    1053
 k-point 32 :   0.3077 0.0769 0.3333  plane waves:    1049
 k-point 33 :   0.3846 0.0769 0.3333  plane waves:    1040
 k-point 34 :   0.4615 0.0769 0.3333  plane waves:    1043
 k-point 35 :   0.1538 0.1538 0.3333  plane waves:    1056
 k-point 36 :   0.2308 0.1538 0.3333  plane waves:    1048
 k-point 37 :   0.3077 0.1538 0.3333  plane waves:    1036
 k-point 38 :   0.3846 0.1538 0.3333  plane waves:    1037
 k-point 39 :   0.2308 0.2308 0.3333  plane waves:    1038
 k-point 40 :   0.3077 0.2308 0.3333  plane waves:    1038
 k-point 41 :   0.3846 0.2308 0.3333  plane waves:    1035
 k-point 42 :   0.3077 0.3077 0.3333  plane waves:    1029

 maximum and minimum number of plane-waves per node :      1064     1026

 maximum number of plane-waves:      1064
 maximum index in each direction: 
   IXMAX=    4   IYMAX=    4   IZMAX=   13
   IXMIN=   -5   IYMIN=   -4   IZMIN=  -14


 serial   3D FFT for wavefunctions
 parallel 3D FFT for charge:
    minimum data exchange during FFTs selected (reduces bandwidth)


 total amount of memory used by VASP MPI-rank0    37800. kBytes
=======================================================================

   base      :      30000. kBytes
   nonl-proj :       5875. kBytes
   fftplans  :        561. kBytes
   grid      :        600. kBytes
   one-center:         12. kBytes
   wavefun   :        752. kBytes
 
     INWAV:  cpu time    0.0618: real time    0.0623
 Broyden mixing: mesh for mixing (old mesh)
   NGX =  9   NGY =  9   NGZ = 27
  (NGX  = 28   NGY  = 28   NGZ  = 84)
  gives a total of   2187 points

 charge density for first step will be calculated from the start-wavefunctions


--------------------------------------------------------------------------------------------------------


 Maximum index for augmentation-charges         1246 (set IRDMAX)


--------------------------------------------------------------------------------------------------------


 initial charge from wavefunction
 First call to EWALD:  gamma=   0.513
 Maximum number of real-space cells 4x 4x 2
 Maximum number of reciprocal cells 2x 2x 5

    FEWALD:  cpu time    0.0015: real time    0.0015


--------------------------------------- Iteration      1(   1)  ---------------------------------------


    POTLOK:  cpu time    0.0035: real time    0.0042
    SETDIJ:  cpu time    0.0026: real time    0.0027
     EDDAV:  cpu time    0.2011: real time    0.2025
       DOS:  cpu time    0.0004: real time    0.0004
    CHARGE:  cpu time    0.0065: real time    0.0066
    MIXING:  cpu time    0.0004: real time    0.0004
    --------------------------------------------
      LOOP:  cpu time    0.2145: real time    0.2167

 eigenvalue-minimisations  :  1840
 total energy-change (2. order) :-0.3515347E+02  (-0.1171902E+02)
 number of electron      15.9999999 magnetization 
 augmentation part        0.4513359 magnetization 

 Broyden mixing:
  rms(total) = 0.55080E+00    rms(broyden)= 0.55062E+00
  rms(prec ) = 0.58073E+00
  weight for this iteration     100.00

 Free energy of the ion-electron system (eV)
  ---------------------------------------------------
  alpha Z        PSCENC =        34.59384069
  Ewald energy   TEWEN  =      -421.88703305
  -Hartree energ DENC   =      -285.08976819
  -exchange      EXHF   =         0.00000000
  -V(xc)+E(xc)   XCENC  =        56.90632535
  PAW double counting   =      2277.48584300    -2278.94165548
  entropy T*S    EENTRO =        -0.00000000
  eigenvalues    EBANDS =       -89.62895056
  atomic energy  EATOM  =       671.40793249
  Solvation  Ediel_sol  =         0.00000000
  ---------------------------------------------------
  free energy    TOTEN  =       -35.15346575 eV

  energy without entropy =      -35.15346575  energy(sigma->0) =      -35.15346575


--------------------------------------------------------------------------------------------------------




--------------------------------------- Iteration      1(   2)  ---------------------------------------


    POTLOK:  cpu time    0.0022: real time    0.0023
    SETDIJ:  cpu time    0.0024: real time    0.0024
     EDDAV:  cpu time    0.4021: real time    0.4051
       DOS:  cpu time    0.0003: real time    0.0003
    CHARGE:  cpu time    0.0069: real time    0.0070
    MIXING:  cpu time    0.0002: real time    0.0002
    --------------------------------------------
      LOOP:  cpu time    0.4141: real time    0.4173

 eigenvalue-minimisations  :  2100
 total energy-change (2. order) :-0.4272828E-01  (-0.1380663E+00)
 number of electron      15.9999999 magnetization 
 augmentation part        0.4702916 magnetization 

 Broyden mixing:
  rms(total) = 0.42002E+00    rms(broyden)= 0.42001E+00
  rms(prec ) = 0.42263E+00
  weight for this iteration     100.00

 eigenvalues of (default mixing * dielectric matrix)
  average eigenvalue GAMMA=   2.4201
  2.4201

 Free energy of the ion-electron system (eV)
  ---------------------------------------------------
  alpha Z        PSCENC =        34.59384069
  Ewald energy   TEWEN  =      -421.88703305
  -Hartree energ DENC   =      -281.88454020
  -exchange      EXHF   =         0.00000000
  -V(xc)+E(xc)   XCENC  =        56.69137755
  PAW double counting   =      2128.95549243    -2130.39367217
  entropy T*S    EENTRO =        -0.00000000
  eigenvalues    EBANDS =       -92.67959178
  atomic energy  EATOM  =       671.40793249
  Solvation  Ediel_sol  =         0.00000000
  ---------------------------------------------------
  free energy    TOTEN  =       -35.19619403 eV

  energy without entropy =      -35.19619403  energy(sigma->0) =      -35.19619403


--------------------------------------------------------------------------------------------------------




--------------------------------------- Iteration      1(   3)  ---------------------------------------


    POTLOK:  cpu time    0.0021: real time    0.0025
    SETDIJ:  cpu time    0.0023: real time    0.0023
     EDDAV:  cpu time    0.4246: real time    0.4275
       DOS:  cpu time    0.0002: real time    0.0002
    CHARGE:  cpu time    0.0067: real time    0.0067
    MIXING:  cpu time    0.0002: real time    0.0002
    --------------------------------------------
      LOOP:  cpu time    0.4361: real time    0.4395

 eigenvalue-minimisations  :  2500
 total energy-change (2. order) : 0.1613699E-02  (-0.1303062E-02)
 number of electron      15.9999999 magnetization 
 augmentation part        0.4713935 magnetization 

 Broyden mixing:
  rms(total) = 0.11996E+00    rms(broyden)= 0.11996E+00
  rms(prec ) = 0.12081E+00
  weight for this iteration     100.00

 eigenvalues of (default mixing * dielectric matrix)
  average eigenvalue GAMMA=   1.7520
  1.0673  2.4366

 Free energy of the ion-electron system (eV)
  ---------------------------------------------------
  alpha Z        PSCENC =        34.59384069
  Ewald energy   TEWEN  =      -421.88703305
  -Hartree energ DENC   =      -281.63674293
  -exchange      EXHF   =         0.00000000
  -V(xc)+E(xc)   XCENC  =        56.67744752
  PAW double counting   =      1923.73472470    -1925.18995113
  entropy T*S    EENTRO =        -0.00000000
  eigenvalues    EBANDS =       -92.89479863
  atomic energy  EATOM  =       671.40793249
  Solvation  Ediel_sol  =         0.00000000
  ---------------------------------------------------
  free energy    TOTEN  =       -35.19458033 eV

  energy without entropy =      -35.19458033  energy(sigma->0) =      -35.19458033


--------------------------------------------------------------------------------------------------------




--------------------------------------- Iteration      1(   4)  ---------------------------------------


    POTLOK:  cpu time    0.0021: real time    0.0024
    SETDIJ:  cpu time    0.0023: real time    0.0023
     EDDAV:  cpu time    0.3947: real time    0.3972
       DOS:  cpu time    0.0002: real time    0.0002
    CHARGE:  cpu time    0.0067: real time    0.0068
    MIXING:  cpu time    0.0002: real time    0.0002
    --------------------------------------------
      LOOP:  cpu time    0.4062: real time    0.4091

 eigenvalue-minimisations  :  2100
 total energy-change (2. order) : 0.1330152E-03  (-0.1198693E-03)
 number of electron      15.9999999 magnetization 
 augmentation part        0.4702010 magnetization 

 Broyden mixing:
  rms(total) = 0.68850E-02    rms(broyden)= 0.68847E-02
  rms(prec ) = 0.76797E-02
  weight for this iteration     100.00

 eigenvalues of (default mixing * dielectric matrix)
  average eigenvalue GAMMA=   1.6568
  2.5668  1.0747  1.3289

 Free energy of the ion-electron system (eV)
  ---------------------------------------------------
  alpha Z        PSCENC =        34.59384069
  Ewald energy   TEWEN  =      -421.88703305
  -Hartree energ DENC   =      -281.69603714
  -exchange      EXHF   =         0.00000000
  -V(xc)+E(xc)   XCENC  =        56.68565075
  PAW double counting   =      1853.80167519    -1855.26370153
  entropy T*S    EENTRO =        -0.00000000
  eigenvalues    EBANDS =       -92.83677472
  atomic energy  EATOM  =       671.40793249
  Solvation  Ediel_sol  =         0.00000000
  ---------------------------------------------------
  free energy    TOTEN  =       -35.19444732 eV

  energy without entropy =      -35.19444732  energy(sigma->0) =      -35.19444732


--------------------------------------------------------------------------------------------------------




--------------------------------------- Iteration      1(   5)  ---------------------------------------


    POTLOK:  cpu time    0.0021: real time    0.0025
    SETDIJ:  cpu time    0.0023: real time    0.0023
     EDDAV:  cpu time    0.4695: real time    0.4728
       DOS:  cpu time    0.0002: real time    0.0002
    --------------------------------------------
      LOOP:  cpu time    0.4741: real time    0.4778

 eigenvalue-minimisations  :  2360
 total energy-change (2. order) : 0.4082465E-05  (-0.7522672E-05)
 number of electron      15.9999999 magnetization 
 augmentation part        0.4702010 magnetization 

 Free energy of the ion-electron system (eV)
  ---------------------------------------------------
  alpha Z        PSCENC =        34.59384069
  Ewald energy   TEWEN  =      -421.88703305
  -Hartree energ DENC   =      -281.56897943
  -exchange      EXHF   =         0.00000000
  -V(xc)+E(xc)   XCENC  =        56.67919411
  PAW double counting   =      1847.88496550    -1849.34580619
  entropy T*S    EENTRO =        -0.00000000
  eigenvalues    EBANDS =       -92.95855737
  atomic energy  EATOM  =       671.40793249
  Solvation  Ediel_sol  =         0.00000000
  ---------------------------------------------------
  free energy    TOTEN  =       -35.19444324 eV

  energy without entropy =      -35.19444324  energy(sigma->0) =      -35.19444324


--------------------------------------------------------------------------------------------------------




 average (electrostatic) potential at core
  the test charge radii are     0.7672  0.7089
  (the norm of the test charge is              1.0000)
       1 -30.0250       2 -29.9921       3 -65.9322       4 -65.8942
 
 
 
 E-fermi :   1.5740     XC(G=0):  -9.2299     alpha+bet : -9.6182


 k-point     1 :       0.0000    0.0000    0.0000
  band No.  band energies     occupation 
      1     -16.3643      2.00000
      2     -16.2534      2.00000
      3      -4.4296      2.00000
      4      -3.3235      2.00000
      5      -0.0618      2.00000
      6      -0.0618      2.00000
      7      -0.0264      2.00000
      8      -0.0264      2.00000
      9       5.9605      0.00000
     10      10.1191      0.00000
     11      12.4684      0.00000
     12      12.7968      0.00000
     13      12.7968      0.00000
     14      12.8385      0.00000
     15      12.8385      0.00000
     16      14.0041      0.00000
     17      15.3001      0.00000
     18      16.1785      0.00000
     19      19.5845      0.00000
     20      25.6336      0.00000

 k-point     2 :       0.0769    0.0000    0.0000
  band No.  band energies     occupation 
      1     -16.2504      2.00000
      2     -16.1412      2.00000
      3      -4.2734      2.00000
      4      -3.1778      2.00000
      5      -0.5408      2.00000
      6      -0.5053      2.00000
      7      -0.2818      2.00000
      8      -0.2459      2.00000
      9       6.1688      0.00000
     10      10.1473      0.00000
     11      12.4383      0.00000
     12      12.7628      0.00000
     13      13.0798      0.00000
     14      13.2982      0.00000
     15      13.3401      0.00000
     16      13.6332      0.00000
     17      15.6758      0.00000
     18      15.8653      0.00000
     19      19.8429      0.00000
     20      25.1652      0.00000

 k-point     3 :       0.1538    0.0000    0.0000
  band No.  band energies     occupation 
      1     -15.9139      2.00000
      2     -15.8094      2.00000
      3      -3.8100      2.00000
      4      -2.7471      2.00000
      5      -1.7744      2.00000
      6      -1.7357      2.00000
      7      -0.8323      2.00000
      8      -0.7955      2.00000
      9       6.7362      0.00000
     10      10.1349      0.00000
     11      12.1660      0.00000
     12      12.5884      0.00000
     13      12.5964      0.00000
     14      14.0046      0.00000
     15      14.6776      0.00000
     16      14.7210      0.00000
     17      15.1264      0.00000
     18      16.6415      0.00000
     19      20.4640      0.00000
     20      23.6252      0.00000

 k-point     4 :       0.2308    0.0000    0.0000
  band No.  band energies     occupation 
      1     -15.3738      2.00000
      2     -15.2771      2.00000
      3      -3.3834      2.00000
      4      -3.3400      2.00000
      5      -3.0575      2.00000
      6      -2.0556      2.00000
      7      -1.5001      2.00000
      8      -1.4625      2.00000
      9       7.5896      0.00000
     10       9.7471      0.00000
     11      11.0483      0.00000
     12      11.8247      0.00000
     13      12.4124      0.00000
     14      14.5115      0.00000
     15      15.2247      0.00000
     16      16.6639      0.00000
     17      16.7127      0.00000
     18      17.8603      0.00000
     19      21.0474      0.00000
     20      21.6739      0.00000

 k-point     5 :       0.3077   -0.0000    0.0000
  band No.  band energies     occupation 
      1     -14.6746      2.00000
      2     -14.5893      2.00000
      3      -5.0520      2.00000
      4      -5.0026      2.00000
      5      -2.1122      2.00000
      6      -2.0739      2.00000
      7      -2.0590      2.00000
      8      -1.1605      2.00000
      9       8.6559      0.00000
     10       8.6742      0.00000
     11       9.2988      0.00000
     12      11.5180      0.00000
     13      12.3045      0.00000
     14      14.5399      0.00000
     15      16.3617      0.00000
     16      18.8328      0.00000
     17      18.9529      0.00000
     18      19.0172      0.00000
     19      19.9720      0.00000
     20      20.9479      0.00000

 k-point     6 :       0.3846    0.0000    0.0000
  band No.  band energies     occupation 
      1     -13.9210      2.00000
      2     -13.8524      2.00000
      3      -6.5160      2.00000
      4      -6.4599      2.00000
      5      -2.5644      2.00000
      6      -2.5256      2.00000
      7      -0.9213      2.00000
      8      -0.2045      2.00000
      9       7.1316      0.00000
     10       7.7039      0.00000
     11       9.8431      0.00000
     12      11.2760      0.00000
     13      12.4463      0.00000
     14      15.1163      0.00000
     15      16.3936      0.00000
     16      18.6283      0.00000
     17      19.0682      0.00000
     18      21.0899      0.00000
     19      21.1492      0.00000
     20      21.3042      0.00000

 k-point     7 :       0.4615    0.0000    0.0000
  band No.  band energies     occupation 
      1     -13.3589      2.00000
      2     -13.3110      2.00000
      3      -7.4453      2.00000
      4      -7.3853      2.00000
      5      -2.8021      2.00000
      6      -2.7630      2.00000
      7       0.0512      2.00000
      8       0.4528      2.00000
      9       5.9653      0.00000
     10       6.6136      0.00000
     11      10.6765      0.00000
     12      11.0740      0.00000
     13      13.2187      0.00000
     14      14.8919      0.00000
     15      15.8257      0.00000
     16      17.6655      0.00000
     17      19.5999      0.00000
     18      21.4653      0.00000
     19      22.4679      0.00000
     20      22.6176      0.00000

 k-point     8 :       0.0769    0.0769    0.0000
  band No.  band energies     occupation 
      1     -16.0251      2.00000
      2     -15.9190      2.00000
      3      -3.9635      2.00000
      4      -2.8894      2.00000
      5      -1.3451      2.00000
      6      -1.3093      2.00000
      7      -0.7175      2.00000
      8      -0.6821      2.00000
      9       6.5579      0.00000
     10      10.1580      0.00000
     11      12.5685      0.00000
     12      12.7964      0.00000
     13      12.9312      0.00000
     14      13.1617      0.00000
     15      14.0534      0.00000
     16      14.4832      0.00000
     17      15.3422      0.00000
     18      16.4172      0.00000
     19      20.2880      0.00000
     20      24.0754      0.00000

 k-point     9 :       0.1538    0.0769    0.0000
  band No.  band energies     occupation 
      1     -15.5861      2.00000
      2     -15.4862      2.00000
      3      -3.3549      2.00000
      4      -2.6765      2.00000
      5      -2.6379      2.00000
      6      -2.3273      2.00000
      7      -1.4172      2.00000
      8      -1.3807      2.00000
      9       7.2773      0.00000
     10       9.9707      0.00000
     11      11.6649      0.00000
     12      12.4500      0.00000
     13      12.8299      0.00000
     14      14.0097      0.00000
     15      14.6755      0.00000
     16      15.2587      0.00000
     17      16.1949      0.00000
     18      17.7900      0.00000
     19      20.9492      0.00000
     20      22.1057      0.00000

 k-point    10 :       0.2308    0.0769    0.0000
  band No.  band energies     occupation 
      1     -14.9629      2.00000
      2     -14.8725      2.00000
      3      -4.2564      2.00000
      4      -4.2123      2.00000
      5      -2.4759      2.00000
      6      -2.1198      2.00000
      7      -2.0817      2.00000
      8      -1.5290      2.00000
      9       8.2729      0.00000
     10       9.2252      0.00000
     11      10.0481      0.00000
     12      12.1563      0.00000
     13      12.7610      0.00000
     14      14.4194      0.00000
     15      15.3530      0.00000
     16      16.8837      0.00000
     17      18.1370      0.00000
     18      19.3845      0.00000
     19      20.1647      0.00000
     20      21.3016      0.00000

 k-point    11 :       0.3077    0.0769    0.0000
  band No.  band energies     occupation 
      1     -14.2239      2.00000
      2     -14.1473      2.00000
      3      -5.8016      2.00000
      4      -5.7503      2.00000
      5      -2.6851      2.00000
      6      -2.6458      2.00000
      7      -1.3941      2.00000
      8      -0.5840      2.00000
      9       7.8798      0.00000
     10       8.3940      0.00000
     11       9.4757      0.00000
     12      11.8898      0.00000
     13      12.7373      0.00000
     14      14.7391      0.00000
     15      16.3858      0.00000
     16      18.3761      0.00000
     17      18.6351      0.00000
     18      20.0041      0.00000
     19      20.3238      0.00000
     20      21.5032      0.00000

 k-point    12 :       0.3846    0.0769    0.0000
  band No.  band energies     occupation 
      1     -13.5316      2.00000
      2     -13.4744      2.00000
      3      -7.0163      2.00000
      4      -6.9588      2.00000
      5      -3.0452      2.00000
      6      -3.0051      2.00000
      7      -0.2868      2.00000
      8       0.2784      2.00000
      9       6.4628      0.00000
     10       7.0380      0.00000
     11      10.6598      0.00000
     12      11.6696      0.00000
     13      13.0255      0.00000
     14      15.3400      0.00000
     15      15.7574      0.00000
     16      17.5429      0.00000
     17      19.1654      0.00000
     18      20.8248      0.00000
     19      21.2226      0.00000
     20      21.8680      0.00000

 k-point    13 :       0.4615    0.0769    0.0000
  band No.  band energies     occupation 
      1     -13.2169      2.00000
      2     -13.1742      2.00000
      3      -7.5077      2.00000
      4      -7.4481      2.00000
      5      -3.1684      2.00000
      6      -3.1280      2.00000
      7       0.3202      2.00000
      8       0.6065      2.00000
      9       5.8202      0.00000
     10       6.4427      0.00000
     11      11.2736      0.00000
     12      11.4689      0.00000
     13      13.8138      0.00000
     14      14.4781      0.00000
     15      15.7376      0.00000
     16      17.0284      0.00000
     17      19.5814      0.00000
     18      21.0688      0.00000
     19      21.2866      0.00000
     20      22.6076      0.00000

 k-point    14 :       0.1538    0.1538    0.0000
  band No.  band energies     occupation 
      1     -15.0616      2.00000
      2     -14.9695      2.00000
      3      -3.8128      2.00000
      4      -3.7765      2.00000
      5      -2.6176      2.00000
      6      -2.3158      2.00000
      7      -2.2799      2.00000
      8      -1.6552      2.00000
      9       8.1557      0.00000
     10       9.4324      0.00000
     11      10.3589      0.00000
     12      13.3218      0.00000
     13      13.4699      0.00000
     14      13.9539      0.00000
     15      14.3953      0.00000
     16      15.6036      0.00000
     17      17.9389      0.00000
     18      19.5861      0.00000
     19      19.9977      0.00000
     20      21.5399      0.00000

 k-point    15 :       0.2308    0.1538    0.0000
  band No.  band energies     occupation 
      1     -14.3871      2.00000
      2     -14.3065      2.00000
      3      -5.1150      2.00000
      4      -5.0744      2.00000
      5      -3.1361      2.00000
      6      -3.0976      2.00000
      7      -1.6434      2.00000
      8      -0.7897      2.00000
      9       8.4081      0.00000
     10       8.8681      0.00000
     11       9.3179      0.00000
     12      13.3070      0.00000
     13      13.8284      0.00000
     14      14.4797      0.00000
     15      15.1320      0.00000
     16      16.6162      0.00000
     17      18.1128      0.00000
     18      19.5001      0.00000
     19      20.9561      0.00000
     20      21.0646      0.00000

 k-point    16 :       0.3077    0.1538    0.0000
  band No.  band energies     occupation 
      1     -13.6690      2.00000
      2     -13.6046      2.00000
      3      -6.3640      2.00000
      4      -6.3142      2.00000
      5      -3.6975      2.00000
      6      -3.6557      2.00000
      7      -0.5415      2.00000
      8       0.1280      2.00000
      9       7.0854      0.00000
     10       7.4808      0.00000
     11      10.6838      0.00000
     12      13.0685      0.00000
     13      13.8976      0.00000
     14      14.7573      0.00000
     15      16.0597      0.00000
     16      16.7537      0.00000
     17      18.0105      0.00000
     18      20.1413      0.00000
     19      20.3609      0.00000
     20      20.9209      0.00000

 k-point    17 :       0.3846    0.1538    0.0000
  band No.  band energies     occupation 
      1     -13.1431      2.00000
      2     -13.0977      2.00000
      3      -7.1851      2.00000
      4      -7.1288      2.00000
      5      -3.9774      2.00000
      6      -3.9339      2.00000
      7       0.3896      2.00000
      8       0.7541      2.00000
      9       6.0454      0.00000
     10       6.5360      0.00000
     11      11.9952      0.00000
     12      12.7859      0.00000
     13      14.1054      0.00000
     14      15.0136      0.00000
     15      15.3817      0.00000
     16      15.9791      0.00000
     17      19.0765      0.00000
     18      20.3018      0.00000
     19      20.6162      0.00000
     20      21.6318      0.00000

 k-point    18 :       0.2308    0.2308    0.0000
  band No.  band energies     occupation 
      1     -13.7206      2.00000
      2     -13.6537      2.00000
      3      -5.9333      2.00000
      4      -5.8967      2.00000
      5      -4.1457      2.00000
      6      -4.1067      2.00000
      7      -0.6343      2.00000
      8       0.0692      2.00000
      9       7.4154      0.00000
     10       7.6446      0.00000
     11      10.6493      0.00000
     12      14.4912      0.00000
     13      14.5234      0.00000
     14      14.9142      0.00000
     15      15.2966      0.00000
     16      16.3232      0.00000
     17      16.7277      0.00000
     18      20.0692      0.00000
     19      20.3066      0.00000
     20      20.8545      0.00000

 k-point    19 :       0.3077    0.2308    0.0000
  band No.  band energies     occupation 
      1     -13.1211      2.00000
      2     -13.0714      2.00000
      3      -6.6549      2.00000
      4      -6.6095      2.00000
      5      -4.8076      2.00000
      6      -4.7641      2.00000
      7       0.3716      2.00000
      8       0.8318      2.00000
      9       6.4103      0.00000
     10       6.6482      0.00000
     11      12.1593      0.00000
     12      14.3480      0.00000
     13      14.3486      0.00000
     14      15.1469      0.00000
     15      15.2349      0.00000
     16      16.1992      0.00000
     17      17.8910      0.00000
     18      19.9421      0.00000
     19      20.0428      0.00000
     20      20.5713      0.00000

 k-point    20 :       0.3846    0.2308    0.0000
  band No.  band energies     occupation 
      1     -12.8607      2.00000
      2     -12.8220      2.00000
      3      -6.9733      2.00000
      4      -6.9208      2.00000
      5      -5.0237      2.00000
      6      -4.9772      2.00000
      7       0.9077      2.00000
      8       1.1128      2.00000
      9       5.9240      0.00000
     10       6.2330      0.00000
     11      13.4157      0.00000
     12      13.7674      0.00000
     13      14.2711      0.00000
     14      14.7229      0.00000
     15      15.1021      0.00000
     16      16.2276      0.00000
     17      18.9051      0.00000
     18      20.0268      0.00000
     19      20.2724      0.00000
     20      20.4576      0.00000

 k-point    21 :       0.3077    0.3077    0.0000
  band No.  band energies     occupation 
      1     -12.7594      2.00000
      2     -12.7218      2.00000
      3      -6.6447      2.00000
      4      -6.6053      2.00000
      5      -5.6489      2.00000
      6      -5.6087      2.00000
      7       1.0819      2.00000
      8       1.2658      2.00000
      9       5.9688      0.00000
     10       6.0963      0.00000
     11      13.6511      0.00000
     12      13.8836      0.00000
     13      14.2632      0.00000
     14      14.5588      0.00000
     15      15.6346      0.00000
     16      17.3542      0.00000
     17      18.5114      0.00000
     18      19.4688      0.00000
     19      19.8790      0.00000
     20      20.3575      0.00000

 k-point    22 :       0.0000    0.0000    0.3333
  band No.  band energies     occupation 
      1     -16.3407      2.00000
      2     -16.2781      2.00000
      3      -4.1850      2.00000
      4      -3.6365      2.00000
      5      -0.0620      2.00000
      6      -0.0619      2.00000
      7      -0.0268      2.00000
      8      -0.0267      2.00000
      9       6.7840      0.00000
     10       8.7021      0.00000
     11      12.8000      0.00000
     12      12.8000      0.00000
     13      12.8346      0.00000
     14      12.8346      0.00000
     15      13.1801      0.00000
     16      13.7999      0.00000
     17      15.4493      0.00000
     18      15.8404      0.00000
     19      21.1036      0.00000
     20      24.0065      0.00000

 k-point    23 :       0.0769    0.0000    0.3333
  band No.  band energies     occupation 
      1     -16.2272      2.00000
      2     -16.1653      2.00000
      3      -4.0310      2.00000
      4      -3.4877      2.00000
      5      -0.5394      2.00000
      6      -0.5042      2.00000
      7      -0.2815      2.00000
      8      -0.2463      2.00000
      9       6.9769      0.00000
     10       8.8407      0.00000
     11      12.6519      0.00000
     12      12.7467      0.00000
     13      13.3018      0.00000
     14      13.3189      0.00000
     15      13.3364      0.00000
     16      13.5705      0.00000
     17      15.6977      0.00000
     18      15.7816      0.00000
     19      21.2254      0.00000
     20      23.8830      0.00000

 k-point    24 :       0.1538    0.0000    0.3333
  band No.  band energies     occupation 
      1     -15.8920      2.00000
      2     -15.8321      2.00000
      3      -3.5753      2.00000
      4      -3.0490      2.00000
      5      -1.7693      2.00000
      6      -1.7334      2.00000
      7      -0.8315      2.00000
      8      -0.7962      2.00000
      9       7.4941      0.00000
     10       9.1585      0.00000
     11      12.2739      0.00000
     12      12.4379      0.00000
     13      12.8216      0.00000
     14      13.2875      0.00000
     15      14.6814      0.00000
     16      14.7166      0.00000
     17      15.9813      0.00000
     18      16.5130      0.00000
     19      21.4880      0.00000
     20      23.2048      0.00000

 k-point    25 :       0.2308    0.0000    0.3333
  band No.  band energies     occupation 
      1     -15.3541      2.00000
      2     -15.2975      2.00000
      3      -3.3854      2.00000
      4      -3.3513      2.00000
      5      -2.8230      2.00000
      6      -2.3287      2.00000
      7      -1.4989      2.00000
      8      -1.4635      2.00000
      9       8.2124      0.00000
     10       9.3262      0.00000
     11      11.2127      0.00000
     12      11.6738      0.00000
     13      12.4644      0.00000
     14      12.9939      0.00000
     15      16.6698      0.00000
     16      16.7068      0.00000
     17      16.7591      0.00000
     18      17.6352      0.00000
     19      21.3453      0.00000
     20      21.9336      0.00000

 k-point    26 :       0.3077   -0.0000    0.3333
  band No.  band energies     occupation 
      1     -14.6581      2.00000
      2     -14.6062      2.00000
      3      -5.0474      2.00000
      4      -5.0096      2.00000
      5      -2.1107      2.00000
      6      -2.0752      2.00000
      7      -1.8524      2.00000
      8      -1.4047      2.00000
      9       8.5471      0.00000
     10       8.6850      0.00000
     11      10.0677      0.00000
     12      11.2626      0.00000
     13      12.3852      0.00000
     14      13.1309      0.00000
     15      17.5270      0.00000
     16      18.5424      0.00000
     17      18.9625      0.00000
     18      19.0050      0.00000
     19      20.0258      0.00000
     20      21.1379      0.00000

 k-point    27 :       0.3846    0.0000    0.3333
  band No.  band energies     occupation 
      1     -13.9096      2.00000
      2     -13.8641      2.00000
      3      -6.5086      2.00000
      4      -6.4687      2.00000
      5      -2.5628      2.00000
      6      -2.5272      2.00000
      7      -0.7518      2.00000
      8      -0.3928      2.00000
      9       7.1952      0.00000
     10       7.4640      0.00000
     11      10.4802      0.00000
     12      11.1594      0.00000
     13      12.6863      0.00000
     14      13.8412      0.00000
     15      17.1334      0.00000
     16      18.1684      0.00000
     17      19.4498      0.00000
     18      21.0252      0.00000
     19      21.1647      0.00000
     20      21.2213      0.00000

 k-point    28 :       0.4615    0.0000    0.3333
  band No.  band energies     occupation 
      1     -13.3543      2.00000
      2     -13.3158      2.00000
      3      -7.4364      2.00000
      4      -7.3954      2.00000
      5      -2.8004      2.00000
      6      -2.7648      2.00000
      7       0.1544      2.00000
      8       0.3583      2.00000
      9       6.0610      0.00000
     10       6.3792      0.00000
     11      10.8967      0.00000
     12      11.0768      0.00000
     13      13.6457      0.00000
     14      14.6032      0.00000
     15      15.9025      0.00000
     16      17.0086      0.00000
     17      19.6680      0.00000
     18      21.1402      0.00000
     19      22.6305      0.00000
     20      22.6960      0.00000

 k-point    29 :       0.0769    0.0769    0.3333
  band No.  band energies     occupation 
      1     -16.0028      2.00000
      2     -15.9423      2.00000
      3      -3.7260      2.00000
      4      -3.1936      2.00000
      5      -1.3421      2.00000
      6      -1.3070      2.00000
      7      -0.7174      2.00000
      8      -0.6824      2.00000
      9       7.3343      0.00000
     10       9.0739      0.00000
     11      12.6402      0.00000
     12      12.7653      0.00000
     13      12.9681      0.00000
     14      13.1092      0.00000
     15      14.0694      0.00000
     16      14.1941      0.00000
     17      15.9289      0.00000
     18      16.3210      0.00000
     19      21.4235      0.00000
     20      23.4519      0.00000

 k-point    30 :       0.1538    0.0769    0.3333
  band No.  band energies     occupation 
      1     -15.5655      2.00000
      2     -15.5075      2.00000
      3      -3.1347      2.00000
      4      -2.7167      2.00000
      5      -2.6428      2.00000
      6      -2.5576      2.00000
      7      -1.4164      2.00000
      8      -1.3812      2.00000
      9       7.9694      0.00000
     10       9.3483      0.00000
     11      11.7966      0.00000
     12      12.2393      0.00000
     13      12.8406      0.00000
     14      13.0519      0.00000
     15      15.1333      0.00000
     16      15.2414      0.00000
     17      16.9457      0.00000
     18      17.6131      0.00000
     19      21.5171      0.00000
     20      22.2121      0.00000

 k-point    31 :       0.2308    0.0769    0.3333
  band No.  band energies     occupation 
      1     -14.9449      2.00000
      2     -14.8910      2.00000
      3      -4.2542      2.00000
      4      -4.2182      2.00000
      5      -2.2604      2.00000
      6      -2.1179      2.00000
      7      -2.0828      2.00000
      8      -1.7868      2.00000
      9       8.6481      0.00000
     10       9.0993      0.00000
     11      10.4631      0.00000
     12      11.7136      0.00000
     13      12.7792      0.00000
     14      13.1086      0.00000
     15      16.3771      0.00000
     16      16.7971      0.00000
     17      18.5065      0.00000
     18      19.1391      0.00000
     19      20.2896      0.00000
     20      21.3592      0.00000

 k-point    32 :       0.3077    0.0769    0.3333
  band No.  band energies     occupation 
      1     -14.2100      2.00000
      2     -14.1615      2.00000
      3      -5.7959      2.00000
      4      -5.7576      2.00000
      5      -2.6834      2.00000
      6      -2.6479      2.00000
      7      -1.2054      2.00000
      8      -0.8008      2.00000
      9       7.9036      0.00000
     10       8.1125      0.00000
     11      10.3957      0.00000
     12      11.6304      0.00000
     13      12.8153      0.00000
     14      13.5171      0.00000
     15      17.1675      0.00000
     16      18.0700      0.00000
     17      18.9040      0.00000
     18      19.6866      0.00000
     19      20.5009      0.00000
     20      21.4479      0.00000

 k-point    33 :       0.3846    0.0769    0.3333
  band No.  band energies     occupation 
      1     -13.5238      2.00000
      2     -13.4823      2.00000
      3      -7.0083      2.00000
      4      -6.9681      2.00000
      5      -3.0432      2.00000
      6      -3.0075      2.00000
      7      -0.1486      2.00000
      8       0.1357      2.00000
      9       6.5455      0.00000
     10       6.8263      0.00000
     11      11.1183      0.00000
     12      11.5952      0.00000
     13      13.2879      0.00000
     14      14.3010      0.00000
     15      16.3794      0.00000
     16      17.3935      0.00000
     17      18.9691      0.00000
     18      20.3951      0.00000
     19      21.7890      0.00000
     20      22.0483      0.00000

 k-point    34 :       0.4615    0.0769    0.3333
  band No.  band energies     occupation 
      1     -13.2141      2.00000
      2     -13.1771      2.00000
      3      -7.4990      2.00000
      4      -7.4581      2.00000
      5      -3.1662      2.00000
      6      -3.1304      2.00000
      7       0.3973      2.00000
      8       0.5445      2.00000
      9       5.9140      0.00000
     10       6.2209      0.00000
     11      11.4260      0.00000
     12      11.5180      0.00000
     13      14.1303      0.00000
     14      14.5651      0.00000
     15      15.6130      0.00000
     16      16.7146      0.00000
     17      19.0676      0.00000
     18      20.5422      0.00000
     19      22.1385      0.00000
     20      22.5582      0.00000

 k-point    35 :       0.1538    0.1538    0.3333
  band No.  band energies     occupation 
      1     -15.0432      2.00000
      2     -14.9886      2.00000
      3      -3.8142      2.00000
      4      -3.7807      2.00000
      5      -2.3998      2.00000
      6      -2.3141      2.00000
      7      -2.2792      2.00000
      8      -1.9168      2.00000
      9       8.6283      0.00000
     10       9.2509      0.00000
     11      10.7225      0.00000
     12      12.1374      0.00000
     13      13.3994      0.00000
     14      13.4536      0.00000
     15      15.2620      0.00000
     16      15.5437      0.00000
     17      18.5012      0.00000
     18      19.2698      0.00000
     19      20.2341      0.00000
     20      21.3808      0.00000

 k-point    36 :       0.2308    0.1538    0.3333
  band No.  band energies     occupation 
      1     -14.3720      2.00000
      2     -14.3220      2.00000
      3      -5.1132      2.00000
      4      -5.0780      2.00000
      5      -3.1347      2.00000
      6      -3.0997      2.00000
      7      -1.4456      2.00000
      8      -1.0197      2.00000
      9       8.4025      0.00000
     10       8.5170      0.00000
     11      10.4425      0.00000
     12      12.3545      0.00000
     13      13.7825      0.00000
     14      13.8191      0.00000
     15      15.9766      0.00000
     16      16.4814      0.00000
     17      18.3435      0.00000
     18      19.0298      0.00000
     19      20.6835      0.00000
     20      21.6115      0.00000

 k-point    37 :       0.3077    0.1538    0.3333
  band No.  band energies     occupation 
      1     -13.6589      2.00000
      2     -13.6149      2.00000
      3      -6.3585      2.00000
      4      -6.3207      2.00000
      5      -3.6948      2.00000
      6      -3.6589      2.00000
      7      -0.3818      2.00000
      8      -0.0462      2.00000
      9       7.1326      0.00000
     10       7.3209      0.00000
     11      11.4092      0.00000
     12      12.6865      0.00000
     13      13.8904      0.00000
     14      14.1212      0.00000
     15      16.2906      0.00000
     16      17.2051      0.00000
     17      17.7772      0.00000
     18      18.9737      0.00000
     19      21.0133      0.00000
     20      21.8438      0.00000

 k-point    38 :       0.3846    0.1538    0.3333
  band No.  band energies     occupation 
      1     -13.1393      2.00000
      2     -13.1015      2.00000
      3      -7.1773      2.00000
      4      -7.1376      2.00000
      5      -3.9740      2.00000
      6      -3.9376      2.00000
      7       0.4838      2.00000
      8       0.6693      2.00000
      9       6.1230      0.00000
     10       6.3659      0.00000
     11      12.3380      0.00000
     12      12.7284      0.00000
     13      14.1454      0.00000
     14      14.5506      0.00000
     15      15.5560      0.00000
     16      16.6759      0.00000
     17      18.1364      0.00000
     18      19.6500      0.00000
     19      21.2016      0.00000
     20      21.6371      0.00000

 k-point    39 :       0.2308    0.2308    0.3333
  band No.  band energies     occupation 
      1     -13.7098      2.00000
      2     -13.6649      2.00000
      3      -5.9325      2.00000
      4      -5.8985      2.00000
      5      -4.1441      2.00000
      6      -4.1092      2.00000
      7      -0.4677      2.00000
      8      -0.1154      2.00000
      9       7.4291      0.00000
     10       7.5269      0.00000
     11      11.4283      0.00000
     12      13.0740      0.00000
     13      14.7920      0.00000
     14      14.9549      0.00000
     15      15.5891      0.00000
     16      16.4108      0.00000
     17      17.0212      0.00000
     18      18.3441      0.00000
     19      21.1437      0.00000
     20      22.0508      0.00000

 k-point    40 :       0.3077    0.2308    0.3333
  band No.  band energies     occupation 
      1     -13.1159      2.00000
      2     -13.0768      2.00000
      3      -6.6507      2.00000
      4      -6.6145      2.00000
      5      -4.8043      2.00000
      6      -4.7682      2.00000
      7       0.4862      2.00000
      8       0.7187      2.00000
      9       6.4438      0.00000
     10       6.5597      0.00000
     11      12.5846      0.00000
     12      13.4784      0.00000
     13      14.7388      0.00000
     14      15.0780      0.00000
     15      15.6230      0.00000
     16      16.4360      0.00000
     17      17.6648      0.00000
     18      18.6867      0.00000
     19      20.3232      0.00000
     20      21.4968      0.00000

 k-point    41 :       0.3846    0.2308    0.3333
  band No.  band energies     occupation 
      1     -12.8594      2.00000
      2     -12.8233      2.00000
      3      -6.9667      2.00000
      4      -6.9282      2.00000
      5      -5.0194      2.00000
      6      -4.9823      2.00000
      7       0.9637      2.00000
      8       1.0713      2.00000
      9       5.9759      0.00000
     10       6.1290      0.00000
     11      13.2153      0.00000
     12      13.5607      0.00000
     13      14.4074      0.00000
     14      14.9823      0.00000
     15      15.6798      0.00000
     16      16.5150      0.00000
     17      18.0651      0.00000
     18      19.3622      0.00000
     19      20.1686      0.00000
     20      21.1362      0.00000

 k-point    42 :       0.3077    0.3077    0.3333
  band No.  band energies     occupation 
      1     -12.7586      2.00000
      2     -12.7227      2.00000
      3      -6.6421      2.00000
      4      -6.6078      2.00000
      5      -5.6472      2.00000
      6      -5.6121      2.00000
      7       1.1319      2.00000
      8       1.2293      2.00000
      9       5.9891      0.00000
     10       6.0466      0.00000
     11      13.1269      0.00000
     12      13.5113      0.00000
     13      14.5920      0.00000
     14      15.7366      0.00000
     15      15.9722      0.00000
     16      16.9702      0.00000
     17      18.2697      0.00000
     18      19.0667      0.00000
     19      19.5123      0.00000
     20      21.0022      0.00000


--------------------------------------------------------------------------------------------------------


 soft charge-density along one line, spin component           1
         0         1         2         3         4         5         6         7         8         9
 total charge-density along one line
 
 pseudopotential strength for first ion, spin component:           1
  6.448   9.818  -0.000  -0.000  -0.000  -0.000  -0.000  -0.000
  9.818  14.944  -0.000  -0.000  -0.000  -0.000  -0.000  -0.000
 -0.000  -0.000  -2.179  -0.000  -0.000  -3.706  -0.000  -0.000
 -0.000  -0.000  -0.000  -2.177  -0.000  -0.000  -3.699  -0.000
 -0.000  -0.000  -0.000  -0.000  -2.179  -0.000  -0.000  -3.706
 -0.000  -0.000  -3.706  -0.000  -0.000  -6.105  -0.000  -0.000
 -0.000  -0.000  -0.000  -3.699  -0.000  -0.000  -6.087  -0.000
 -0.000  -0.000  -0.000  -0.000  -3.706  -0.000  -0.000  -6.105
 total augmentation occupancy for first ion, spin component:           1
  4.194  -1.221  -0.000   0.000   0.000   0.000   0.000   0.000
 -1.221   0.384  -0.000   0.000   0.000  -0.000   0.000   0.000
 -0.000  -0.000   4.891   0.000   0.000  -1.470   0.000   0.000
  0.000   0.000   0.000   1.587   0.000   0.000  -0.387   0.000
  0.000   0.000   0.000   0.000   4.891   0.000   0.000  -1.470
  0.000  -0.000  -1.470   0.000   0.000   0.458   0.000   0.000
  0.000   0.000   0.000  -0.387   0.000   0.000   0.095  -0.000
  0.000   0.000   0.000  -0.000  -1.470   0.000   0.000   0.458


------------------------ aborting loop because EDIFF is reached ----------------------------------------


 


 total charge     
 
# of ion       s       p       d       tot
------------------------------------------
    1        0.740   1.413   0.000   2.153
    2        0.740   1.413   0.000   2.153
    3        1.225   2.786   0.000   4.011
    4        1.225   2.786   0.000   4.011
--------------------------------------------------
tot          3.930   8.398   0.000  12.329
 
    CHARGE:  cpu time    0.0049: real time    0.0049
    FORLOC:  cpu time    0.0001: real time    0.0001
    FORNL :  cpu time    0.0141: real time    0.0142
    STRESS:  cpu time    0.1216: real time    0.1229
    FORCOR:  cpu time    0.0018: real time    0.0019
    FORHAR:  cpu time    0.0006: real time    0.0006
    MIXING:  cpu time    0.0001: real time    0.0001
    OFIELD:  cpu time    0.0000: real time    0.0001

  FORCE on cell =-STRESS in cart. coord.  units (eV):
  Direction    XX          YY          ZZ          XY          YZ          ZX
  --------------------------------------------------------------------------------------
  Alpha Z    34.59384    34.59384    34.59384
  Ewald     121.29472   121.29472  -664.47690    -0.00000    -0.00000    -0.00000
  Hartree   223.90137   223.90137  -166.28927    -0.00000     0.00000     0.00000
  E(xc)     -63.11420   -63.11419   -64.94562     0.00000     0.00000     0.00000
  Local    -544.53690  -544.53616   600.41056     0.00000     0.00000    -0.00010
  n-local   -30.91093   -29.26161   -29.93790     0.10271    -0.00475     0.01626
  augment     2.17044     2.17031     2.52419    -0.00000     0.00000    -0.00000
  Kinetic   258.70604   252.92517   288.16138     2.50535     0.04852    -0.16150
  Fock        0.00000     0.00000     0.00000     0.00000     0.00000     0.00000
  -------------------------------------------------------------------------------------
  Total       0.03891     0.03891     0.04029     0.00000    -0.00000    -0.00000
  in kB       1.51508     1.51508     1.56867     0.00000    -0.00000    -0.00000
  external pressure =        1.53 kB  Pullay stress =        0.00 kB


 VOLUME and BASIS-vectors are now :
 -----------------------------------------------------------------------------
  energy-cutoff  :      500.00
  volume of cell :       41.15
      direct lattice vectors                 reciprocal lattice vectors
     1.256237318 -2.175866861  0.000000000     0.398013968 -0.229793472  0.000000000
     1.256237318  2.175866861  0.000000000     0.398013968  0.229793472  0.000000000
     0.000000000  0.000000000  7.526459174     0.000000000  0.000000000  0.132864602

  length of vectors
     2.512474636  2.512474636  7.526459174     0.459586943  0.459586943  0.132864602


 FORCES acting on ions
    electron-ion (+dipol)            ewald-force                    non-local-force                 convergence-correction
 -----------------------------------------------------------------------------------------------
   -.306E-14 -.120E-04 0.250E-14   0.466E-14 -.651E-11 -.139E-13   -.555E-16 -.555E-16 0.000E+00   0.913E-15 0.106E-06 0.367E-13
   0.175E-13 -.158E-04 -.246E-12   0.347E-14 0.130E-10 0.139E-13   0.278E-16 0.555E-16 0.000E+00   -.776E-16 0.109E-06 -.360E-13
   0.263E-12 -.665E-06 -.810E-12   -.352E-14 0.651E-11 -.231E-13   0.000E+00 0.694E-17 0.000E+00   -.481E-15 0.250E-06 0.743E-13
   0.218E-12 -.278E-05 -.358E-11   -.271E-14 -.130E-10 0.231E-13   0.694E-17 0.694E-17 0.000E+00   0.746E-14 0.260E-06 -.692E-13
 -----------------------------------------------------------------------------------------------
   0.496E-12 -.313E-04 -.464E-11   0.191E-14 0.202E-14 0.000E+00   -.208E-16 0.139E-16 0.000E+00   0.781E-14 0.726E-06 0.575E-14
 
 
 POSITION                                       TOTAL-FORCE (eV/Angst)
 -----------------------------------------------------------------------------------
      0.00000      0.00000      0.00000         0.000000      0.000000      0.000000
      1.25624      0.72529      3.76323         0.000000      0.000000      0.000000
      1.25624      0.72529      0.00000        -0.000000     -0.000000      0.000000
      1.25624     -0.72529      3.76323         0.000000     -0.000000      0.000000
 -----------------------------------------------------------------------------------
    total drift:                                0.000000     -0.000031     -0.000000


--------------------------------------------------------------------------------------------------------



  FREE ENERGIE OF THE ION-ELECTRON SYSTEM (eV)
  ---------------------------------------------------
  free  energy   TOTEN  =       -35.19444324 eV

  energy  without entropy=      -35.19444324  energy(sigma->0) =      -35.19444324
 


--------------------------------------------------------------------------------------------------------


    POTLOK:  cpu time    0.0049: real time    0.0049


--------------------------------------------------------------------------------------------------------


 writing wavefunctions
     LOOP+:  cpu time    2.1985: real time    2.2201
    4ORBIT:  cpu time    0.0000: real time    0.0000
 


 total charge     
 
# of ion       s       p       d       tot
------------------------------------------
    1        0.740   1.413   0.000   2.153
    2        0.740   1.413   0.000   2.153
    3        1.225   2.786   0.000   4.011
    4        1.225   2.786   0.000   4.011
--------------------------------------------------
tot          3.930   8.398   0.000  12.329
 

 total amount of memory used by VASP MPI-rank0    37800. kBytes
=======================================================================

   base      :      30000. kBytes
   nonl-proj :       5875. kBytes
   fftplans  :        561. kBytes
   grid      :        600. kBytes
   one-center:         12. kBytes
   wavefun   :        752. kBytes
 
  
  
 General timing and accounting informations for this job:
 ========================================================
  
                  Total CPU time used (sec):        2.797
                            User time (sec):        2.445
                          System time (sec):        0.352
                         Elapsed time (sec):        3.079
  
                   Maximum memory used (kb):       75876.
                   Average memory used (kb):           0.
  
                          Minor page faults:        10575
                          Major page faults:            5
                 Voluntary context switches:         3651
