   4   4   1   0
  0.1028643E+02  0.2512475E-09  0.2512475E-09  0.7526459E-09  0.5000000E-15
  1.000000000000000E-004
  CAR 
 BiFeO3                                  
     27.73244865    -18.46681862  301      1.57211356      1.00000000
    -18.467  0.0000E+00  0.0000E+00
    -18.313  0.0000E+00  0.0000E+00
    -18.159  0.0000E+00  0.0000E+00
    -18.005  0.0000E+00  0.0000E+00
    -17.851  0.0000E+00  0.0000E+00
    -17.697  0.0000E+00  0.0000E+00
    -17.543  0.0000E+00  0.0000E+00
    -17.389  0.0000E+00  0.0000E+00
    -17.235  0.0000E+00  0.0000E+00
    -17.081  0.0000E+00  0.0000E+00
    -16.927  0.0000E+00  0.0000E+00
    -16.773  0.0000E+00  0.0000E+00
    -16.619  0.1812E-14  0.2790E-15
    -16.465  0.2698E-04  0.4155E-05
    -16.311  0.1121E+00  0.1726E-01
    -16.157  0.6510E+00  0.1175E+00
    -16.003  0.7699E+00  0.2361E+00
    -15.849  0.7731E+00  0.3551E+00
    -15.695  0.7805E+00  0.4753E+00
    -15.541  0.8272E+00  0.6027E+00
    -15.387  0.8186E+00  0.7288E+00
    -15.233  0.7571E+00  0.8454E+00
    -15.079  0.8829E+00  0.9813E+00
    -14.925  0.8877E+00  0.1118E+01
    -14.771  0.7701E+00  0.1237E+01
    -14.617  0.1039E+01  0.1397E+01
    -14.463  0.7887E+00  0.1518E+01
    -14.309  0.1076E+01  0.1684E+01
    -14.155  0.9400E+00  0.1829E+01
    -14.001  0.1073E+01  0.1994E+01
    -13.847  0.1189E+01  0.2177E+01
    -13.693  0.1092E+01  0.2345E+01
    -13.539  0.1576E+01  0.2588E+01
    -13.385  0.1388E+01  0.2801E+01
    -13.231  0.2420E+01  0.3174E+01
    -13.077  0.2184E+01  0.3510E+01
    -12.923  0.1423E+01  0.3729E+01
    -12.769  0.1154E+01  0.3907E+01
    -12.615  0.5979E+00  0.3999E+01
    -12.461  0.4777E-02  0.4000E+01
    -12.307  0.7424E-10  0.4000E+01
    -12.153  0.0000E+00  0.4000E+01
    -11.999  0.0000E+00  0.4000E+01
    -11.845  0.0000E+00  0.4000E+01
    -11.691  0.0000E+00  0.4000E+01
    -11.537  0.0000E+00  0.4000E+01
    -11.383  0.0000E+00  0.4000E+01
    -11.229  0.0000E+00  0.4000E+01
    -11.075  0.0000E+00  0.4000E+01
    -10.921  0.0000E+00  0.4000E+01
    -10.767  0.0000E+00  0.4000E+01
    -10.613  0.0000E+00  0.4000E+01
    -10.459  0.0000E+00  0.4000E+01
    -10.305  0.0000E+00  0.4000E+01
    -10.151  0.0000E+00  0.4000E+01
     -9.997  0.0000E+00  0.4000E+01
     -9.843  0.0000E+00  0.4000E+01
     -9.689  0.0000E+00  0.4000E+01
     -9.535  0.0000E+00  0.4000E+01
     -9.381  0.0000E+00  0.4000E+01
     -9.227  0.0000E+00  0.4000E+01
     -9.073  0.0000E+00  0.4000E+01
     -8.919  0.0000E+00  0.4000E+01
     -8.765  0.0000E+00  0.4000E+01
     -8.611  0.0000E+00  0.4000E+01
     -8.457  0.0000E+00  0.4000E+01
     -8.303  0.0000E+00  0.4000E+01
     -8.149  0.0000E+00  0.4000E+01
     -7.995  0.0000E+00  0.4000E+01
     -7.841  0.1173E-14  0.4000E+01
     -7.687  0.3136E-04  0.4000E+01
     -7.533  0.2100E+00  0.4032E+01
     -7.379  0.1125E+01  0.4206E+01
     -7.225  0.1260E+01  0.4400E+01
     -7.071  0.1223E+01  0.4588E+01
     -6.917  0.1310E+01  0.4790E+01
     -6.763  0.1673E+01  0.5047E+01
     -6.609  0.1869E+01  0.5335E+01
     -6.455  0.1462E+01  0.5560E+01
     -6.301  0.8989E+00  0.5699E+01
     -6.147  0.8429E+00  0.5829E+01
     -5.993  0.8229E+00  0.5955E+01
     -5.839  0.5044E+00  0.6033E+01
     -5.685  0.1177E+01  0.6214E+01
     -5.531  0.5571E+00  0.6300E+01
     -5.377  0.1202E+01  0.6485E+01
     -5.223  0.5826E+00  0.6575E+01
     -5.069  0.1274E+01  0.6771E+01
     -4.915  0.3948E+00  0.6832E+01
     -4.761  0.1596E+01  0.7078E+01
     -4.607  0.4838E+00  0.7152E+01
     -4.453  0.1053E+01  0.7314E+01
     -4.299  0.1246E+01  0.7506E+01
     -4.145  0.1150E+01  0.7683E+01
     -3.991  0.1149E+01  0.7860E+01
     -3.837  0.1511E+01  0.8093E+01
     -3.683  0.1392E+01  0.8307E+01
     -3.529  0.1531E+01  0.8543E+01
     -3.375  0.1836E+01  0.8826E+01
     -3.221  0.1826E+01  0.9107E+01
     -3.067  0.2016E+01  0.9417E+01
     -2.913  0.2181E+01  0.9753E+01
     -2.759  0.2809E+01  0.1019E+02
     -2.605  0.2369E+01  0.1055E+02
     -2.451  0.2014E+01  0.1086E+02
     -2.297  0.2095E+01  0.1118E+02
     -2.143  0.1532E+01  0.1142E+02
     -1.989  0.1614E+01  0.1167E+02
     -1.835  0.1956E+01  0.1197E+02
     -1.681  0.1222E+01  0.1216E+02
     -1.527  0.1923E+01  0.1245E+02
     -1.373  0.1124E+01  0.1263E+02
     -1.219  0.1900E+01  0.1292E+02
     -1.065  0.9534E+00  0.1307E+02
     -0.911  0.1838E+01  0.1335E+02
     -0.757  0.1218E+01  0.1354E+02
     -0.603  0.1397E+01  0.1375E+02
     -0.449  0.1555E+01  0.1399E+02
     -0.295  0.1426E+01  0.1421E+02
     -0.141  0.1405E+01  0.1443E+02
      0.013  0.1336E+01  0.1463E+02
      0.167  0.1136E+01  0.1481E+02
      0.321  0.1299E+01  0.1501E+02
      0.475  0.1582E+01  0.1525E+02
      0.629  0.1294E+01  0.1545E+02
      0.783  0.1130E+01  0.1562E+02
      0.937  0.8067E+00  0.1575E+02
      1.091  0.7402E+00  0.1586E+02
      1.245  0.6618E+00  0.1596E+02
      1.399  0.2288E+00  0.1600E+02
      1.553  0.1879E-03  0.1600E+02
      1.707  0.0000E+00  0.1600E+02
      1.861  0.0000E+00  0.1600E+02
      2.015  0.0000E+00  0.1600E+02
      2.169  0.0000E+00  0.1600E+02
      2.323  0.0000E+00  0.1600E+02
      2.477  0.0000E+00  0.1600E+02
      2.631  0.0000E+00  0.1600E+02
      2.785  0.0000E+00  0.1600E+02
      2.939  0.0000E+00  0.1600E+02
      3.093  0.0000E+00  0.1600E+02
      3.247  0.0000E+00  0.1600E+02
      3.401  0.0000E+00  0.1600E+02
      3.555  0.0000E+00  0.1600E+02
      3.709  0.0000E+00  0.1600E+02
      3.863  0.0000E+00  0.1600E+02
      4.017  0.0000E+00  0.1600E+02
      4.171  0.0000E+00  0.1600E+02
      4.325  0.0000E+00  0.1600E+02
      4.479  0.0000E+00  0.1600E+02
      4.633  0.0000E+00  0.1600E+02
      4.787  0.0000E+00  0.1600E+02
      4.941  0.0000E+00  0.1600E+02
      5.095  0.0000E+00  0.1600E+02
      5.249  0.0000E+00  0.1600E+02
      5.403  0.0000E+00  0.1600E+02
      5.557  0.2205E-12  0.1600E+02
      5.711  0.2123E-03  0.1600E+02
      5.865  0.1960E+00  0.1603E+02
      6.019  0.1413E+01  0.1625E+02
      6.173  0.1686E+01  0.1651E+02
      6.327  0.1629E+01  0.1676E+02
      6.481  0.1525E+01  0.1699E+02
      6.635  0.1309E+01  0.1719E+02
      6.789  0.1130E+01  0.1737E+02
      6.943  0.9644E+00  0.1752E+02
      7.097  0.1094E+01  0.1769E+02
      7.251  0.7527E+00  0.1780E+02
      7.405  0.1069E+01  0.1797E+02
      7.559  0.8264E+00  0.1809E+02
      7.713  0.9003E+00  0.1823E+02
      7.867  0.8703E+00  0.1837E+02
      8.021  0.9133E+00  0.1851E+02
      8.175  0.8693E+00  0.1864E+02
      8.329  0.1024E+01  0.1880E+02
      8.483  0.9315E+00  0.1894E+02
      8.637  0.1268E+01  0.1914E+02
      8.791  0.1206E+01  0.1932E+02
      8.945  0.9332E+00  0.1947E+02
      9.099  0.6886E+00  0.1957E+02
      9.253  0.5966E+00  0.1966E+02
      9.407  0.6652E+00  0.1977E+02
      9.561  0.5981E+00  0.1986E+02
      9.715  0.6732E+00  0.1996E+02
      9.869  0.7051E+00  0.2007E+02
     10.023  0.7033E+00  0.2018E+02
     10.177  0.6182E+00  0.2027E+02
     10.331  0.6516E+00  0.2038E+02
     10.485  0.4520E+00  0.2044E+02
     10.639  0.6123E+00  0.2054E+02
     10.793  0.6720E+00  0.2064E+02
     10.947  0.9880E+00  0.2079E+02
     11.101  0.1136E+01  0.2097E+02
     11.255  0.1365E+01  0.2118E+02
     11.409  0.1374E+01  0.2139E+02
     11.563  0.1318E+01  0.2159E+02
     11.717  0.1190E+01  0.2178E+02
     11.871  0.1182E+01  0.2196E+02
     12.025  0.1302E+01  0.2216E+02
     12.179  0.1102E+01  0.2233E+02
     12.333  0.1396E+01  0.2255E+02
     12.487  0.2063E+01  0.2286E+02
     12.641  0.2507E+01  0.2325E+02
     12.795  0.3026E+01  0.2371E+02
     12.949  0.2560E+01  0.2411E+02
     13.103  0.2564E+01  0.2450E+02
     13.257  0.2466E+01  0.2488E+02
     13.411  0.2491E+01  0.2527E+02
     13.565  0.2263E+01  0.2562E+02
     13.719  0.1818E+01  0.2590E+02
     13.873  0.1870E+01  0.2618E+02
     14.027  0.1891E+01  0.2647E+02
     14.181  0.1548E+01  0.2671E+02
     14.335  0.1495E+01  0.2694E+02
     14.489  0.2564E+01  0.2734E+02
     14.643  0.2486E+01  0.2772E+02
     14.797  0.1950E+01  0.2802E+02
     14.951  0.1593E+01  0.2827E+02
     15.105  0.1357E+01  0.2848E+02
     15.259  0.1086E+01  0.2864E+02
     15.413  0.1522E+01  0.2888E+02
     15.567  0.1692E+01  0.2914E+02
     15.721  0.2203E+01  0.2948E+02
     15.875  0.2525E+01  0.2987E+02
     16.029  0.2010E+01  0.3018E+02
     16.183  0.1449E+01  0.3040E+02
     16.337  0.1610E+01  0.3065E+02
     16.491  0.1940E+01  0.3095E+02
     16.645  0.1963E+01  0.3125E+02
     16.799  0.1557E+01  0.3149E+02
     16.953  0.1451E+01  0.3171E+02
     17.107  0.1372E+01  0.3192E+02
     17.261  0.1278E+01  0.3212E+02
     17.415  0.1347E+01  0.3233E+02
     17.569  0.1357E+01  0.3254E+02
     17.723  0.1047E+01  0.3270E+02
     17.877  0.1141E+01  0.3287E+02
     18.031  0.1245E+01  0.3306E+02
     18.185  0.1432E+01  0.3328E+02
     18.339  0.1226E+01  0.3347E+02
     18.493  0.1202E+01  0.3366E+02
     18.647  0.1248E+01  0.3385E+02
     18.801  0.1398E+01  0.3407E+02
     18.955  0.1382E+01  0.3428E+02
     19.109  0.1355E+01  0.3449E+02
     19.263  0.1671E+01  0.3475E+02
     19.417  0.1478E+01  0.3497E+02
     19.571  0.1612E+01  0.3522E+02
     19.725  0.1442E+01  0.3544E+02
     19.879  0.1115E+01  0.3561E+02
     20.033  0.1221E+01  0.3580E+02
     20.187  0.1437E+01  0.3602E+02
     20.341  0.1357E+01  0.3623E+02
     20.495  0.1220E+01  0.3642E+02
     20.649  0.1388E+01  0.3663E+02
     20.803  0.1811E+01  0.3691E+02
     20.957  0.1976E+01  0.3722E+02
     21.111  0.2133E+01  0.3755E+02
     21.265  0.2591E+01  0.3795E+02
     21.419  0.2516E+01  0.3833E+02
     21.573  0.1824E+01  0.3861E+02
     21.727  0.1967E+01  0.3892E+02
     21.881  0.1209E+01  0.3910E+02
     22.035  0.1159E+01  0.3928E+02
     22.189  0.8598E+00  0.3941E+02
     22.343  0.6336E+00  0.3951E+02
     22.497  0.7241E+00  0.3962E+02
     22.651  0.5077E+00  0.3970E+02
     22.805  0.4231E+00  0.3977E+02
     22.959  0.2515E+00  0.3980E+02
     23.113  0.2067E+00  0.3984E+02
     23.267  0.1605E+00  0.3986E+02
     23.421  0.6224E-01  0.3987E+02
     23.575  0.1012E+00  0.3989E+02
     23.729  0.8822E-01  0.3990E+02
     23.883  0.1014E+00  0.3992E+02
     24.037  0.8965E-01  0.3993E+02
     24.191  0.6989E-01  0.3994E+02
     24.345  0.5538E-01  0.3995E+02
     24.498  0.5453E-01  0.3996E+02
     24.652  0.8006E-01  0.3997E+02
     24.806  0.3065E-01  0.3997E+02
     24.960  0.5084E-01  0.3998E+02
     25.114  0.4349E-01  0.3999E+02
     25.268  0.2195E-01  0.3999E+02
     25.422  0.3244E-01  0.4000E+02
     25.576  0.1555E-01  0.4000E+02
     25.730  0.2978E-02  0.4000E+02
     25.884  0.2215E-05  0.4000E+02
     26.038  0.0000E+00  0.4000E+02
     26.192  0.0000E+00  0.4000E+02
     26.346  0.0000E+00  0.4000E+02
     26.500  0.0000E+00  0.4000E+02
     26.654  0.0000E+00  0.4000E+02
     26.808  0.0000E+00  0.4000E+02
     26.962  0.0000E+00  0.4000E+02
     27.116  0.0000E+00  0.4000E+02
     27.270  0.0000E+00  0.4000E+02
     27.424  0.0000E+00  0.4000E+02
     27.578  0.0000E+00  0.4000E+02
     27.732  0.0000E+00  0.4000E+02
     27.73244865    -18.46681862  301      1.57211356      1.00000000
    -18.467  0.0000E+00  0.0000E+00  0.0000E+00  0.0000E+00  0.0000E+00  0.0000E+00  0.0000E+00  0.0000E+00  0.0000E+00
    -18.313  0.0000E+00  0.0000E+00  0.0000E+00  0.0000E+00  0.0000E+00  0.0000E+00  0.0000E+00  0.0000E+00  0.0000E+00
    -18.159  0.0000E+00  0.0000E+00  0.0000E+00  0.0000E+00  0.0000E+00  0.0000E+00  0.0000E+00  0.0000E+00  0.0000E+00
    -18.005  0.0000E+00  0.0000E+00  0.0000E+00  0.0000E+00  0.0000E+00  0.0000E+00  0.0000E+00  0.0000E+00  0.0000E+00
    -17.851  0.0000E+00  0.0000E+00  0.0000E+00  0.0000E+00  0.0000E+00  0.0000E+00  0.0000E+00  0.0000E+00  0.0000E+00
    -17.697  0.0000E+00  0.0000E+00  0.0000E+00  0.0000E+00  0.0000E+00  0.0000E+00  0.0000E+00  0.0000E+00  0.0000E+00
    -17.543  0.0000E+00  0.0000E+00  0.0000E+00  0.0000E+00  0.0000E+00  0.0000E+00  0.0000E+00  0.0000E+00  0.0000E+00
    -17.389  0.0000E+00  0.0000E+00  0.0000E+00  0.0000E+00  0.0000E+00  0.0000E+00  0.0000E+00  0.0000E+00  0.0000E+00
    -17.235  0.0000E+00  0.0000E+00  0.0000E+00  0.0000E+00  0.0000E+00  0.0000E+00  0.0000E+00  0.0000E+00  0.0000E+00
    -17.081  0.0000E+00  0.0000E+00  0.0000E+00  0.0000E+00  0.0000E+00  0.0000E+00  0.0000E+00  0.0000E+00  0.0000E+00
    -16.927  0.0000E+00  0.0000E+00  0.0000E+00  0.0000E+00  0.0000E+00  0.0000E+00  0.0000E+00  0.0000E+00  0.0000E+00
    -16.773  0.0000E+00  0.0000E+00  0.0000E+00  0.0000E+00  0.0000E+00  0.0000E+00  0.0000E+00  0.0000E+00  0.0000E+00
    -16.619  0.3120E-15  0.2668E-19  0.4834E-21  0.8003E-19  0.0000E+00  0.0000E+00  0.0000E+00  0.0000E+00  0.0000E+00
    -16.465  0.4732E-05  0.2077E-08  0.1246E-10  0.6517E-08  0.0000E+00  0.0000E+00  0.0000E+00  0.0000E+00  0.0000E+00
    -16.311  0.1996E-01  0.1855E-04  0.1241E-06  0.1103E-03  0.0000E+00  0.0000E+00  0.0000E+00  0.0000E+00  0.0000E+00
    -16.157  0.8988E-01  0.2030E-03  0.1370E-05  0.1665E-02  0.0000E+00  0.0000E+00  0.0000E+00  0.0000E+00  0.0000E+00
    -16.003  0.9715E-01  0.4738E-03  0.1601E-05  0.4441E-02  0.0000E+00  0.0000E+00  0.0000E+00  0.0000E+00  0.0000E+00
    -15.849  0.9481E-01  0.7766E-03  0.1519E-05  0.7274E-02  0.0000E+00  0.0000E+00  0.0000E+00  0.0000E+00  0.0000E+00
    -15.695  0.9086E-01  0.1065E-02  0.1507E-05  0.9951E-02  0.0000E+00  0.0000E+00  0.0000E+00  0.0000E+00  0.0000E+00
    -15.541  0.9479E-01  0.1456E-02  0.1472E-05  0.1394E-01  0.0000E+00  0.0000E+00  0.0000E+00  0.0000E+00  0.0000E+00
    -15.387  0.9245E-01  0.1822E-02  0.1321E-05  0.1775E-01  0.0000E+00  0.0000E+00  0.0000E+00  0.0000E+00  0.0000E+00
    -15.233  0.7769E-01  0.2065E-02  0.1181E-05  0.1815E-01  0.0000E+00  0.0000E+00  0.0000E+00  0.0000E+00  0.0000E+00
    -15.079  0.8404E-01  0.2725E-02  0.1400E-05  0.2308E-01  0.0000E+00  0.0000E+00  0.0000E+00  0.0000E+00  0.0000E+00
    -14.925  0.8830E-01  0.3208E-02  0.1142E-05  0.3037E-01  0.0000E+00  0.0000E+00  0.0000E+00  0.0000E+00  0.0000E+00
    -14.771  0.6512E-01  0.3592E-02  0.1028E-05  0.2528E-01  0.0000E+00  0.0000E+00  0.0000E+00  0.0000E+00  0.0000E+00
    -14.617  0.8844E-01  0.4701E-02  0.1228E-05  0.4151E-01  0.0000E+00  0.0000E+00  0.0000E+00  0.0000E+00  0.0000E+00
    -14.463  0.6362E-01  0.4986E-02  0.7983E-06  0.3518E-01  0.0000E+00  0.0000E+00  0.0000E+00  0.0000E+00  0.0000E+00
    -14.309  0.7560E-01  0.6443E-02  0.1129E-05  0.4798E-01  0.0000E+00  0.0000E+00  0.0000E+00  0.0000E+00  0.0000E+00
    -14.155  0.6658E-01  0.7415E-02  0.7525E-06  0.5151E-01  0.0000E+00  0.0000E+00  0.0000E+00  0.0000E+00  0.0000E+00
    -14.001  0.6091E-01  0.8749E-02  0.9197E-06  0.5345E-01  0.0000E+00  0.0000E+00  0.0000E+00  0.0000E+00  0.0000E+00
    -13.847  0.6798E-01  0.1179E-01  0.7463E-06  0.7437E-01  0.0000E+00  0.0000E+00  0.0000E+00  0.0000E+00  0.0000E+00
    -13.693  0.4820E-01  0.1254E-01  0.6766E-06  0.6246E-01  0.0000E+00  0.0000E+00  0.0000E+00  0.0000E+00  0.0000E+00
    -13.539  0.6512E-01  0.2006E-01  0.7291E-06  0.1063E+00  0.0000E+00  0.0000E+00  0.0000E+00  0.0000E+00  0.0000E+00
    -13.385  0.4466E-01  0.2363E-01  0.4643E-06  0.9940E-01  0.0000E+00  0.0000E+00  0.0000E+00  0.0000E+00  0.0000E+00
    -13.231  0.5512E-01  0.4508E-01  0.6359E-06  0.1674E+00  0.0000E+00  0.0000E+00  0.0000E+00  0.0000E+00  0.0000E+00
    -13.077  0.3845E-01  0.4424E-01  0.3981E-06  0.1514E+00  0.0000E+00  0.0000E+00  0.0000E+00  0.0000E+00  0.0000E+00
    -12.923  0.1749E-01  0.3668E-01  0.1685E-06  0.1013E+00  0.0000E+00  0.0000E+00  0.0000E+00  0.0000E+00  0.0000E+00
    -12.769  0.7110E-02  0.3712E-01  0.8283E-07  0.7546E-01  0.0000E+00  0.0000E+00  0.0000E+00  0.0000E+00  0.0000E+00
    -12.615  0.9609E-03  0.2059E-01  0.1628E-07  0.2968E-01  0.0000E+00  0.0000E+00  0.0000E+00  0.0000E+00  0.0000E+00
    -12.461  0.4372E-06  0.4170E-04  0.4617E-10  0.4780E-04  0.0000E+00  0.0000E+00  0.0000E+00  0.0000E+00  0.0000E+00
    -12.307  0.3154E-15  0.3485E-13  0.4920E-18  0.3726E-13  0.0000E+00  0.0000E+00  0.0000E+00  0.0000E+00  0.0000E+00
    -12.153  0.0000E+00  0.0000E+00  0.0000E+00  0.0000E+00  0.0000E+00  0.0000E+00  0.0000E+00  0.0000E+00  0.0000E+00
    -11.999  0.0000E+00  0.0000E+00  0.0000E+00  0.0000E+00  0.0000E+00  0.0000E+00  0.0000E+00  0.0000E+00  0.0000E+00
    -11.845  0.0000E+00  0.0000E+00  0.0000E+00  0.0000E+00  0.0000E+00  0.0000E+00  0.0000E+00  0.0000E+00  0.0000E+00
    -11.691  0.0000E+00  0.0000E+00  0.0000E+00  0.0000E+00  0.0000E+00  0.0000E+00  0.0000E+00  0.0000E+00  0.0000E+00
    -11.537  0.0000E+00  0.0000E+00  0.0000E+00  0.0000E+00  0.0000E+00  0.0000E+00  0.0000E+00  0.0000E+00  0.0000E+00
    -11.383  0.0000E+00  0.0000E+00  0.0000E+00  0.0000E+00  0.0000E+00  0.0000E+00  0.0000E+00  0.0000E+00  0.0000E+00
    -11.229  0.0000E+00  0.0000E+00  0.0000E+00  0.0000E+00  0.0000E+00  0.0000E+00  0.0000E+00  0.0000E+00  0.0000E+00
    -11.075  0.0000E+00  0.0000E+00  0.0000E+00  0.0000E+00  0.0000E+00  0.0000E+00  0.0000E+00  0.0000E+00  0.0000E+00
    -10.921  0.0000E+00  0.0000E+00  0.0000E+00  0.0000E+00  0.0000E+00  0.0000E+00  0.0000E+00  0.0000E+00  0.0000E+00
    -10.767  0.0000E+00  0.0000E+00  0.0000E+00  0.0000E+00  0.0000E+00  0.0000E+00  0.0000E+00  0.0000E+00  0.0000E+00
    -10.613  0.0000E+00  0.0000E+00  0.0000E+00  0.0000E+00  0.0000E+00  0.0000E+00  0.0000E+00  0.0000E+00  0.0000E+00
    -10.459  0.0000E+00  0.0000E+00  0.0000E+00  0.0000E+00  0.0000E+00  0.0000E+00  0.0000E+00  0.0000E+00  0.0000E+00
    -10.305  0.0000E+00  0.0000E+00  0.0000E+00  0.0000E+00  0.0000E+00  0.0000E+00  0.0000E+00  0.0000E+00  0.0000E+00
    -10.151  0.0000E+00  0.0000E+00  0.0000E+00  0.0000E+00  0.0000E+00  0.0000E+00  0.0000E+00  0.0000E+00  0.0000E+00
     -9.997  0.0000E+00  0.0000E+00  0.0000E+00  0.0000E+00  0.0000E+00  0.0000E+00  0.0000E+00  0.0000E+00  0.0000E+00
     -9.843  0.0000E+00  0.0000E+00  0.0000E+00  0.0000E+00  0.0000E+00  0.0000E+00  0.0000E+00  0.0000E+00  0.0000E+00
     -9.689  0.0000E+00  0.0000E+00  0.0000E+00  0.0000E+00  0.0000E+00  0.0000E+00  0.0000E+00  0.0000E+00  0.0000E+00
     -9.535  0.0000E+00  0.0000E+00  0.0000E+00  0.0000E+00  0.0000E+00  0.0000E+00  0.0000E+00  0.0000E+00  0.0000E+00
     -9.381  0.0000E+00  0.0000E+00  0.0000E+00  0.0000E+00  0.0000E+00  0.0000E+00  0.0000E+00  0.0000E+00  0.0000E+00
     -9.227  0.0000E+00  0.0000E+00  0.0000E+00  0.0000E+00  0.0000E+00  0.0000E+00  0.0000E+00  0.0000E+00  0.0000E+00
     -9.073  0.0000E+00  0.0000E+00  0.0000E+00  0.0000E+00  0.0000E+00  0.0000E+00  0.0000E+00  0.0000E+00  0.0000E+00
     -8.919  0.0000E+00  0.0000E+00  0.0000E+00  0.0000E+00  0.0000E+00  0.0000E+00  0.0000E+00  0.0000E+00  0.0000E+00
     -8.765  0.0000E+00  0.0000E+00  0.0000E+00  0.0000E+00  0.0000E+00  0.0000E+00  0.0000E+00  0.0000E+00  0.0000E+00
     -8.611  0.0000E+00  0.0000E+00  0.0000E+00  0.0000E+00  0.0000E+00  0.0000E+00  0.0000E+00  0.0000E+00  0.0000E+00
     -8.457  0.0000E+00  0.0000E+00  0.0000E+00  0.0000E+00  0.0000E+00  0.0000E+00  0.0000E+00  0.0000E+00  0.0000E+00
     -8.303  0.0000E+00  0.0000E+00  0.0000E+00  0.0000E+00  0.0000E+00  0.0000E+00  0.0000E+00  0.0000E+00  0.0000E+00
     -8.149  0.0000E+00  0.0000E+00  0.0000E+00  0.0000E+00  0.0000E+00  0.0000E+00  0.0000E+00  0.0000E+00  0.0000E+00
     -7.995  0.0000E+00  0.0000E+00  0.0000E+00  0.0000E+00  0.0000E+00  0.0000E+00  0.0000E+00  0.0000E+00  0.0000E+00
     -7.841  0.3017E-15  0.1448E-16  0.6386E-21  0.4344E-16  0.0000E+00  0.0000E+00  0.0000E+00  0.0000E+00  0.0000E+00
     -7.687  0.8279E-05  0.4061E-06  0.2313E-10  0.1190E-05  0.0000E+00  0.0000E+00  0.0000E+00  0.0000E+00  0.0000E+00
     -7.533  0.4680E-01  0.2694E-02  0.5041E-06  0.6831E-02  0.0000E+00  0.0000E+00  0.0000E+00  0.0000E+00  0.0000E+00
     -7.379  0.1825E+00  0.1533E-01  0.4365E-05  0.2782E-01  0.0000E+00  0.0000E+00  0.0000E+00  0.0000E+00  0.0000E+00
     -7.225  0.1886E+00  0.2739E-01  0.4846E-05  0.3110E-01  0.0000E+00  0.0000E+00  0.0000E+00  0.0000E+00  0.0000E+00
     -7.071  0.1726E+00  0.3832E-01  0.4572E-05  0.3126E-01  0.0000E+00  0.0000E+00  0.0000E+00  0.0000E+00  0.0000E+00
     -6.917  0.1605E+00  0.4506E-01  0.5408E-05  0.3266E-01  0.0000E+00  0.0000E+00  0.0000E+00  0.0000E+00  0.0000E+00
     -6.763  0.1921E+00  0.8036E-01  0.6450E-05  0.4532E-01  0.0000E+00  0.0000E+00  0.0000E+00  0.0000E+00  0.0000E+00
     -6.609  0.1684E+00  0.1334E+00  0.6617E-05  0.5619E-01  0.0000E+00  0.0000E+00  0.0000E+00  0.0000E+00  0.0000E+00
     -6.455  0.1338E+00  0.8262E-01  0.7099E-05  0.3188E-01  0.0000E+00  0.0000E+00  0.0000E+00  0.0000E+00  0.0000E+00
     -6.301  0.1010E+00  0.5182E-01  0.4706E-05  0.1771E-01  0.0000E+00  0.0000E+00  0.0000E+00  0.0000E+00  0.0000E+00
     -6.147  0.8072E-01  0.4706E-01  0.5643E-05  0.1164E-01  0.0000E+00  0.0000E+00  0.0000E+00  0.0000E+00  0.0000E+00
     -5.993  0.9494E-01  0.4836E-01  0.5477E-05  0.2074E-01  0.0000E+00  0.0000E+00  0.0000E+00  0.0000E+00  0.0000E+00
     -5.839  0.4384E-01  0.2147E-01  0.4485E-05  0.5934E-02  0.0000E+00  0.0000E+00  0.0000E+00  0.0000E+00  0.0000E+00
     -5.685  0.1467E+00  0.5679E-01  0.8640E-05  0.2940E-01  0.0000E+00  0.0000E+00  0.0000E+00  0.0000E+00  0.0000E+00
     -5.531  0.6690E-01  0.2132E-01  0.3200E-05  0.9521E-02  0.0000E+00  0.0000E+00  0.0000E+00  0.0000E+00  0.0000E+00
     -5.377  0.1320E+00  0.5003E-01  0.1095E-04  0.3986E-01  0.0000E+00  0.0000E+00  0.0000E+00  0.0000E+00  0.0000E+00
     -5.223  0.6438E-01  0.3923E-01  0.4625E-05  0.1418E-01  0.0000E+00  0.0000E+00  0.0000E+00  0.0000E+00  0.0000E+00
     -5.069  0.1297E+00  0.5224E-01  0.1307E-04  0.5200E-01  0.0000E+00  0.0000E+00  0.0000E+00  0.0000E+00  0.0000E+00
     -4.915  0.3579E-01  0.2318E-01  0.3588E-05  0.1243E-01  0.0000E+00  0.0000E+00  0.0000E+00  0.0000E+00  0.0000E+00
     -4.761  0.1467E+00  0.8504E-01  0.2057E-04  0.6876E-01  0.0000E+00  0.0000E+00  0.0000E+00  0.0000E+00  0.0000E+00
     -4.607  0.3956E-01  0.2356E-01  0.3328E-05  0.2316E-01  0.0000E+00  0.0000E+00  0.0000E+00  0.0000E+00  0.0000E+00
     -4.453  0.9291E-01  0.5967E-01  0.1760E-03  0.5902E-01  0.0000E+00  0.0000E+00  0.0000E+00  0.0000E+00  0.0000E+00
     -4.299  0.7574E-01  0.7304E-01  0.7149E-02  0.4455E-01  0.0000E+00  0.0000E+00  0.0000E+00  0.0000E+00  0.0000E+00
     -4.145  0.7601E-01  0.5560E-01  0.1566E-01  0.6325E-01  0.0000E+00  0.0000E+00  0.0000E+00  0.0000E+00  0.0000E+00
     -3.991  0.5885E-01  0.6933E-01  0.2197E-01  0.5100E-01  0.0000E+00  0.0000E+00  0.0000E+00  0.0000E+00  0.0000E+00
     -3.837  0.6949E-01  0.8188E-01  0.2804E-01  0.6149E-01  0.0000E+00  0.0000E+00  0.0000E+00  0.0000E+00  0.0000E+00
     -3.683  0.5508E-01  0.6030E-01  0.3120E-01  0.6387E-01  0.0000E+00  0.0000E+00  0.0000E+00  0.0000E+00  0.0000E+00
     -3.529  0.5436E-01  0.1079E+00  0.3559E-01  0.6691E-01  0.0000E+00  0.0000E+00  0.0000E+00  0.0000E+00  0.0000E+00
     -3.375  0.6278E-01  0.8485E-01  0.4474E-01  0.8096E-01  0.0000E+00  0.0000E+00  0.0000E+00  0.0000E+00  0.0000E+00
     -3.221  0.3875E-01  0.1258E+00  0.5103E-01  0.7241E-01  0.0000E+00  0.0000E+00  0.0000E+00  0.0000E+00  0.0000E+00
     -3.067  0.5031E-01  0.1216E+00  0.5722E-01  0.9619E-01  0.0000E+00  0.0000E+00  0.0000E+00  0.0000E+00  0.0000E+00
     -2.913  0.3673E-01  0.1631E+00  0.5044E-01  0.9253E-01  0.0000E+00  0.0000E+00  0.0000E+00  0.0000E+00  0.0000E+00
     -2.759  0.3628E-01  0.2374E+00  0.5340E-01  0.1244E+00  0.0000E+00  0.0000E+00  0.0000E+00  0.0000E+00  0.0000E+00
     -2.605  0.2473E-01  0.1821E+00  0.5119E-01  0.1023E+00  0.0000E+00  0.0000E+00  0.0000E+00  0.0000E+00  0.0000E+00
     -2.451  0.2430E-01  0.1351E+00  0.5378E-01  0.8416E-01  0.0000E+00  0.0000E+00  0.0000E+00  0.0000E+00  0.0000E+00
     -2.297  0.2788E-01  0.1335E+00  0.5395E-01  0.9407E-01  0.0000E+00  0.0000E+00  0.0000E+00  0.0000E+00  0.0000E+00
     -2.143  0.1346E-01  0.8038E-01  0.5323E-01  0.5536E-01  0.0000E+00  0.0000E+00  0.0000E+00  0.0000E+00  0.0000E+00
     -1.989  0.1078E-01  0.9080E-01  0.5238E-01  0.5551E-01  0.0000E+00  0.0000E+00  0.0000E+00  0.0000E+00  0.0000E+00
     -1.835  0.2159E-01  0.1199E+00  0.5158E-01  0.9098E-01  0.0000E+00  0.0000E+00  0.0000E+00  0.0000E+00  0.0000E+00
     -1.681  0.6237E-02  0.3844E-01  0.5242E-01  0.2847E-01  0.0000E+00  0.0000E+00  0.0000E+00  0.0000E+00  0.0000E+00
     -1.527  0.1247E-01  0.1225E+00  0.5331E-01  0.7908E-01  0.0000E+00  0.0000E+00  0.0000E+00  0.0000E+00  0.0000E+00
     -1.373  0.7917E-02  0.3011E-01  0.4776E-01  0.3613E-01  0.0000E+00  0.0000E+00  0.0000E+00  0.0000E+00  0.0000E+00
     -1.219  0.7760E-02  0.1050E+00  0.5631E-01  0.6147E-01  0.0000E+00  0.0000E+00  0.0000E+00  0.0000E+00  0.0000E+00
     -1.065  0.1954E-02  0.2922E-01  0.4743E-01  0.1792E-01  0.0000E+00  0.0000E+00  0.0000E+00  0.0000E+00  0.0000E+00
     -0.911  0.8447E-02  0.8645E-01  0.5129E-01  0.6857E-01  0.0000E+00  0.0000E+00  0.0000E+00  0.0000E+00  0.0000E+00
     -0.757  0.1760E-02  0.5139E-01  0.5194E-01  0.2489E-01  0.0000E+00  0.0000E+00  0.0000E+00  0.0000E+00  0.0000E+00
     -0.603  0.3178E-02  0.5216E-01  0.4714E-01  0.3978E-01  0.0000E+00  0.0000E+00  0.0000E+00  0.0000E+00  0.0000E+00
     -0.449  0.1791E-02  0.6399E-01  0.5264E-01  0.3087E-01  0.0000E+00  0.0000E+00  0.0000E+00  0.0000E+00  0.0000E+00
     -0.295  0.1450E-02  0.5262E-01  0.4913E-01  0.3581E-01  0.0000E+00  0.0000E+00  0.0000E+00  0.0000E+00  0.0000E+00
     -0.141  0.4869E-03  0.4639E-01  0.5000E-01  0.2422E-01  0.0000E+00  0.0000E+00  0.0000E+00  0.0000E+00  0.0000E+00
      0.013  0.1463E-03  0.2271E-01  0.5079E-01  0.1507E-01  0.0000E+00  0.0000E+00  0.0000E+00  0.0000E+00  0.0000E+00
      0.167  0.3245E-04  0.7361E-04  0.5525E-01  0.6981E-04  0.0000E+00  0.0000E+00  0.0000E+00  0.0000E+00  0.0000E+00
      0.321  0.3020E-04  0.1286E-04  0.5613E-01  0.1872E-04  0.0000E+00  0.0000E+00  0.0000E+00  0.0000E+00  0.0000E+00
      0.475  0.3306E-04  0.1661E-04  0.6179E-01  0.2737E-04  0.0000E+00  0.0000E+00  0.0000E+00  0.0000E+00  0.0000E+00
      0.629  0.2115E-04  0.1386E-04  0.4406E-01  0.2309E-04  0.0000E+00  0.0000E+00  0.0000E+00  0.0000E+00  0.0000E+00
      0.783  0.1297E-04  0.1152E-04  0.3340E-01  0.1868E-04  0.0000E+00  0.0000E+00  0.0000E+00  0.0000E+00  0.0000E+00
      0.937  0.7970E-05  0.1018E-04  0.1714E-01  0.1649E-04  0.0000E+00  0.0000E+00  0.0000E+00  0.0000E+00  0.0000E+00
      1.091  0.4276E-05  0.8788E-05  0.1186E-01  0.1380E-04  0.0000E+00  0.0000E+00  0.0000E+00  0.0000E+00  0.0000E+00
      1.245  0.2004E-05  0.8671E-05  0.4912E-02  0.1228E-04  0.0000E+00  0.0000E+00  0.0000E+00  0.0000E+00  0.0000E+00
      1.399  0.2599E-06  0.3949E-05  0.4880E-03  0.4707E-05  0.0000E+00  0.0000E+00  0.0000E+00  0.0000E+00  0.0000E+00
      1.553  0.7711E-10  0.3894E-08  0.1047E-06  0.4203E-08  0.0000E+00  0.0000E+00  0.0000E+00  0.0000E+00  0.0000E+00
      1.707  0.0000E+00  0.0000E+00  0.0000E+00  0.0000E+00  0.0000E+00  0.0000E+00  0.0000E+00  0.0000E+00  0.0000E+00
      1.861  0.0000E+00  0.0000E+00  0.0000E+00  0.0000E+00  0.0000E+00  0.0000E+00  0.0000E+00  0.0000E+00  0.0000E+00
      2.015  0.0000E+00  0.0000E+00  0.0000E+00  0.0000E+00  0.0000E+00  0.0000E+00  0.0000E+00  0.0000E+00  0.0000E+00
      2.169  0.0000E+00  0.0000E+00  0.0000E+00  0.0000E+00  0.0000E+00  0.0000E+00  0.0000E+00  0.0000E+00  0.0000E+00
      2.323  0.0000E+00  0.0000E+00  0.0000E+00  0.0000E+00  0.0000E+00  0.0000E+00  0.0000E+00  0.0000E+00  0.0000E+00
      2.477  0.0000E+00  0.0000E+00  0.0000E+00  0.0000E+00  0.0000E+00  0.0000E+00  0.0000E+00  0.0000E+00  0.0000E+00
      2.631  0.0000E+00  0.0000E+00  0.0000E+00  0.0000E+00  0.0000E+00  0.0000E+00  0.0000E+00  0.0000E+00  0.0000E+00
      2.785  0.0000E+00  0.0000E+00  0.0000E+00  0.0000E+00  0.0000E+00  0.0000E+00  0.0000E+00  0.0000E+00  0.0000E+00
      2.939  0.0000E+00  0.0000E+00  0.0000E+00  0.0000E+00  0.0000E+00  0.0000E+00  0.0000E+00  0.0000E+00  0.0000E+00
      3.093  0.0000E+00  0.0000E+00  0.0000E+00  0.0000E+00  0.0000E+00  0.0000E+00  0.0000E+00  0.0000E+00  0.0000E+00
      3.247  0.0000E+00  0.0000E+00  0.0000E+00  0.0000E+00  0.0000E+00  0.0000E+00  0.0000E+00  0.0000E+00  0.0000E+00
      3.401  0.0000E+00  0.0000E+00  0.0000E+00  0.0000E+00  0.0000E+00  0.0000E+00  0.0000E+00  0.0000E+00  0.0000E+00
      3.555  0.0000E+00  0.0000E+00  0.0000E+00  0.0000E+00  0.0000E+00  0.0000E+00  0.0000E+00  0.0000E+00  0.0000E+00
      3.709  0.0000E+00  0.0000E+00  0.0000E+00  0.0000E+00  0.0000E+00  0.0000E+00  0.0000E+00  0.0000E+00  0.0000E+00
      3.863  0.0000E+00  0.0000E+00  0.0000E+00  0.0000E+00  0.0000E+00  0.0000E+00  0.0000E+00  0.0000E+00  0.0000E+00
      4.017  0.0000E+00  0.0000E+00  0.0000E+00  0.0000E+00  0.0000E+00  0.0000E+00  0.0000E+00  0.0000E+00  0.0000E+00
      4.171  0.0000E+00  0.0000E+00  0.0000E+00  0.0000E+00  0.0000E+00  0.0000E+00  0.0000E+00  0.0000E+00  0.0000E+00
      4.325  0.0000E+00  0.0000E+00  0.0000E+00  0.0000E+00  0.0000E+00  0.0000E+00  0.0000E+00  0.0000E+00  0.0000E+00
      4.479  0.0000E+00  0.0000E+00  0.0000E+00  0.0000E+00  0.0000E+00  0.0000E+00  0.0000E+00  0.0000E+00  0.0000E+00
      4.633  0.0000E+00  0.0000E+00  0.0000E+00  0.0000E+00  0.0000E+00  0.0000E+00  0.0000E+00  0.0000E+00  0.0000E+00
      4.787  0.0000E+00  0.0000E+00  0.0000E+00  0.0000E+00  0.0000E+00  0.0000E+00  0.0000E+00  0.0000E+00  0.0000E+00
      4.941  0.0000E+00  0.0000E+00  0.0000E+00  0.0000E+00  0.0000E+00  0.0000E+00  0.0000E+00  0.0000E+00  0.0000E+00
      5.095  0.0000E+00  0.0000E+00  0.0000E+00  0.0000E+00  0.0000E+00  0.0000E+00  0.0000E+00  0.0000E+00  0.0000E+00
      5.249  0.0000E+00  0.0000E+00  0.0000E+00  0.0000E+00  0.0000E+00  0.0000E+00  0.0000E+00  0.0000E+00  0.0000E+00
      5.403  0.0000E+00  0.0000E+00  0.0000E+00  0.0000E+00  0.0000E+00  0.0000E+00  0.0000E+00  0.0000E+00  0.0000E+00
      5.557  0.2214E-19  0.7332E-20  0.4127E-13  0.2147E-19  0.0000E+00  0.0000E+00  0.0000E+00  0.0000E+00  0.0000E+00