 vasp.5.4.4.18Apr17-6-g9f103f2a35 (build May 10 2019 17:57:18) complex          
  
 executed on             LinuxIFC date 2024.07.16  00:28:47
 running on   20 total cores
 distrk:  each k-point on   20 cores,    1 groups
 distr:  one band on NCORES_PER_BAND=   1 cores,   20 groups


--------------------------------------------------------------------------------------------------------


 INCAR:
 POTCAR:    PAW_PBE B 06Sep2000                   
 POTCAR:    PAW_PBE N 08Apr2002                   

 ----------------------------------------------------------------------------- 
|                                                                             |
|           W    W    AA    RRRRR   N    N  II  N    N   GGGG   !!!           |
|           W    W   A  A   R    R  NN   N  II  NN   N  G    G  !!!           |
|           W    W  A    A  R    R  N N  N  II  N N  N  G       !!!           |
|           W WW W  AAAAAA  RRRRR   N  N N  II  N  N N  G  GGG   !            |
|           WW  WW  A    A  R   R   N   NN  II  N   NN  G    G                |
|           W    W  A    A  R    R  N    N  II  N    N   GGGG   !!!           |
|                                                                             |
|      For optimal performance we recommend to set                            |
|        NCORE= 4 - approx SQRT( number of cores)                             |
|      NCORE specifies how many cores store one orbital (NPAR=cpu/NCORE).     |
|      This setting can  greatly improve the performance of VASP for DFT.     |
|      The default,   NCORE=1            might be grossly inefficient         |
|      on modern multi-core architectures or massively parallel machines.     |
|      Do your own testing !!!!                                               |
|      Unfortunately you need to use the default for GW and RPA calculations. |
|      (for HF NCORE is supported but not extensively tested yet)             |
|                                                                             |
 ----------------------------------------------------------------------------- 

 POTCAR:    PAW_PBE B 06Sep2000                   
   SHA256 =  a32ced30f5ae56fd4d10b4325ff17eb3e4e38ee0f4288bc219fb012fddfa6e97 B/
   COPYR  = (c) Copyright 06Sep2000 Georg Kresse                                
   COPYR  = This file is part of the software VASP. Any use, copying, and all ot
   COPYR  = If you do not have a valid VASP license, you may not use, copy or di
   VRHFIN =B: s2p1                                                              
   LEXCH  = PE                                                                  
   EATOM  =    71.1703 eV,    5.2309 Ry                                         
                                                                                
   TITEL  = PAW_PBE B 06Sep2000                                                 
   LULTRA =        F    use ultrasoft PP ?                                      
   IUNSCR =        1    unscreen: 0-lin 1-nonlin 2-no                           
   RPACOR =    1.200    partial core radius                                     
   POMASS =   10.811; ZVAL   =    3.000    mass and valenz                      
   RCORE  =    1.700    outmost cutoff radius                                   
   RWIGS  =    1.710; RWIGS  =    0.905    wigner-seitz radius (au A)           
   ENMAX  =  318.614; ENMIN  =  238.960 eV                                      
   ICORE  =        2    local potential                                         
   LCOR   =        T    correct aug charges                                     
   LPAW   =        T    paw PP                                                  
   EAUG   =  535.514                                                            
   DEXC   =    0.000                                                            
   RMAX   =    1.732    core radius for proj-oper                               
   RAUG   =    1.300    factor for augmentation sphere                          
   RDEP   =    1.757    radius for radial grids                                 
   RDEPT  =    1.436    core radius for aug-charge                              
                                                                                
   Atomic configuration                                                         
    4 entries                                                                   
     n  l   j            E        occ.                                          
     1  0  0.50      -180.5896   2.0000                                         
     2  0  0.50        -9.4431   2.0000                                         
     2  1  0.50        -3.6068   1.0000                                         
     3  2  1.50        -4.0817   0.0000                                         
   Description                                                                  
     l       E           TYP  RCUT    TYP  RCUT                                 
     0     -9.4430752     23  1.500                                             
     0      0.8675899     23  1.500                                             
     1     -3.6067955     23  1.700                                             
     1      6.1086146     23  1.700                                             
     2     -4.0817478      7  1.700                                             
  local pseudopotential read in
  partial core-charges read in
  partial kinetic energy density read in
  atomic valenz-charges read in
  non local Contribution for L=           0  read in
    real space projection operators read in
  non local Contribution for L=           0  read in
    real space projection operators read in
  non local Contribution for L=           1  read in
    real space projection operators read in
  non local Contribution for L=           1  read in
    real space projection operators read in
    PAW grid and wavefunctions read in
 
   number of l-projection  operators is LMAX  =           4
   number of lm-projection operators is LMMAX =           8
 
 POTCAR:    PAW_PBE N 08Apr2002                   
   SHA256 =  e053789ff3a61a86a1b75d8a110fcc91f86041011e7b0817c7c99e4e8a6349d7 N/
   COPYR  = (c) Copyright 08Apr2002 Georg Kresse                                
   COPYR  = This file is part of the software VASP. Any use, copying, and all ot
   COPYR  = If you do not have a valid VASP license, you may not use, copy or di
   VRHFIN =N: s2p3                                                              
   LEXCH  = PE                                                                  
   EATOM  =   264.5486 eV,   19.4438 Ry                                         
                                                                                
   TITEL  = PAW_PBE N 08Apr2002                                                 
   LULTRA =        F    use ultrasoft PP ?                                      
   IUNSCR =        1    unscreen: 0-lin 1-nonlin 2-no                           
   RPACOR =    1.200    partial core radius                                     
   POMASS =   14.001; ZVAL   =    5.000    mass and valenz                      
   RCORE  =    1.500    outmost cutoff radius                                   
   RWIGS  =    1.400; RWIGS  =    0.741    wigner-seitz radius (au A)           
   ENMAX  =  400.000; ENMIN  =  300.000 eV                                      
   ICORE  =        2    local potential                                         
   LCOR   =        T    correct aug charges                                     
   LPAW   =        T    paw PP                                                  
   EAUG   =  627.112                                                            
   DEXC   =    0.000                                                            
   RMAX   =    1.529    core radius for proj-oper                               
   RAUG   =    1.300    factor for augmentation sphere                          
   RDEP   =    1.514    radius for radial grids                                 
   RDEPT  =    1.338    core radius for aug-charge                              
                                                                                
   Atomic configuration                                                         
    4 entries                                                                   
     n  l   j            E        occ.                                          
     1  0  0.50      -384.7179   2.0000                                         
     2  0  0.50       -18.5828   2.0000                                         
     2  1  0.50        -7.0898   3.0000                                         
     3  2  1.50        -6.8029   0.0000                                         
   Description                                                                  
     l       E           TYP  RCUT    TYP  RCUT                                 
     0    -18.5828119     23  1.200                                             
     0    -13.5018863     23  1.200                                             
     1     -7.0897853     23  1.500                                             
     1      9.5240782     23  1.500                                             
     2     -6.8029130      7  1.500                                             
  local pseudopotential read in
  partial core-charges read in
  partial kinetic energy density read in
  atomic valenz-charges read in
  non local Contribution for L=           0  read in
    real space projection operators read in
  non local Contribution for L=           0  read in
    real space projection operators read in
  non local Contribution for L=           1  read in
    real space projection operators read in
  non local Contribution for L=           1  read in
    real space projection operators read in
    PAW grid and wavefunctions read in
 
   number of l-projection  operators is LMAX  =           4
   number of lm-projection operators is LMMAX =           8
 
  PAW_PBE B 06Sep2000                   :
 energy of atom  1       EATOM=  -71.1703
 kinetic energy error for atom=    0.0012 (will be added to EATOM!!)
  PAW_PBE N 08Apr2002                   :
 energy of atom  2       EATOM= -264.5486
 kinetic energy error for atom=    0.0138 (will be added to EATOM!!)
 
 
 POSCAR: B2 N2                                   
  positions in direct lattice
  velocities in cartesian coordinates
 exchange correlation table for  LEXCH =        8
   RHO(1)=    0.500       N(1)  =     2000
   RHO(2)=  100.500       N(2)  =     4000
 


--------------------------------------------------------------------------------------------------------


 ion  position               nearest neighbor table
   1  0.000  0.000  0.000-   3 1.45   3 1.45   3 1.45
   2  0.333  0.667  0.500-   4 1.45   4 1.45   4 1.45
   3  0.333  0.667  0.000-   1 1.45   1 1.45   1 1.45
   4  0.667  0.333  0.500-   2 1.45   2 1.45   2 1.45
 
  LATTYP: Found a hexagonal cell.
 ALAT       =     2.5124746362
 C/A-ratio  =     2.9956358826
  
  Lattice vectors:
  
 A1 = (   1.2562373181,  -2.1758668613,   0.0000000000)
 A2 = (   1.2562373181,   2.1758668613,   0.0000000000)
 A3 = (   0.0000000000,   0.0000000000,   7.5264591742)


Analysis of symmetry for initial positions (statically):
=====================================================================
 Subroutine PRICEL returns:
 Original cell was already a primitive cell.
 

 Routine SETGRP: Setting up the symmetry group for a 
 hexagonal supercell.


 Subroutine GETGRP returns: Found 12 space group operations
 (whereof 12 operations were pure point group operations)
 out of a pool of 24 trial point group operations.


The static configuration has the point symmetry D_3h.


Analysis of symmetry for dynamics (positions and initial velocities):
=====================================================================
 Subroutine PRICEL returns:
 Original cell was already a primitive cell.
 

 Routine SETGRP: Setting up the symmetry group for a 
 hexagonal supercell.


 Subroutine GETGRP returns: Found 12 space group operations
 (whereof 12 operations were pure point group operations)
 out of a pool of 24 trial point group operations.


The dynamic configuration has the point symmetry D_3h.


 Subroutine INISYM returns: Found 12 space group operations
 (whereof 12 operations are pure point group operations),
 and found     1 'primitive' translations

 
 
 KPOINTS: A                                       

Automatic generation of k-mesh.
Space group operators:
 irot       det(A)        alpha          n_x          n_y          n_z        tau_x        tau_y        tau_z
    1     1.000000     0.000000     1.000000     0.000000     0.000000     0.000000     0.000000     0.000000
    2    -1.000000    60.000000     0.000000     0.000000    -1.000000     0.000000     0.000000     0.000000
    3     1.000000   120.000000     0.000000     0.000000    -1.000000     0.000000     0.000000     0.000000
    4    -1.000000   180.000000     0.000000     0.000000     1.000000     0.000000     0.000000     0.000000
    5     1.000000   120.000000     0.000000     0.000000     1.000000     0.000000     0.000000     0.000000
    6    -1.000000    60.000000     0.000000     0.000000     1.000000     0.000000     0.000000     0.000000
    7    -1.000000   180.000000     0.500000    -0.866025     0.000000     0.000000     0.000000     0.000000
    8     1.000000   180.000000     0.000000     1.000000     0.000000     0.000000     0.000000     0.000000
    9    -1.000000   180.000000    -0.500000    -0.866025     0.000000     0.000000     0.000000     0.000000
   10     1.000000   180.000000     0.866025     0.500000     0.000000     0.000000     0.000000     0.000000
   11    -1.000000   180.000000     1.000000     0.000000     0.000000     0.000000     0.000000     0.000000
   12     1.000000   180.000000     0.866025    -0.500000     0.000000     0.000000     0.000000     0.000000
 
 Subroutine IBZKPT returns following result:
 ===========================================
 
 Found    918 irreducible k-points:
 
 Following reciprocal coordinates:
            Coordinates               Weight
  0.000000  0.000000  0.000000      1.000000
  0.031250  0.000000  0.000000      6.000000
  0.062500  0.000000  0.000000      6.000000
  0.093750  0.000000  0.000000      6.000000
  0.125000  0.000000  0.000000      6.000000
  0.156250  0.000000  0.000000      6.000000
  0.187500  0.000000  0.000000      6.000000
  0.218750  0.000000  0.000000      6.000000
  0.250000  0.000000  0.000000      6.000000
  0.281250  0.000000  0.000000      6.000000
  0.312500  0.000000  0.000000      6.000000
  0.343750  0.000000  0.000000      6.000000
  0.375000  0.000000  0.000000      6.000000
  0.406250  0.000000  0.000000      6.000000
  0.437500  0.000000  0.000000      6.000000
  0.468750  0.000000  0.000000      6.000000
  0.500000  0.000000  0.000000      3.000000
  0.031250  0.031250  0.000000      6.000000
  0.062500  0.031250  0.000000     12.000000
  0.093750  0.031250  0.000000     12.000000
  0.125000  0.031250  0.000000     12.000000
  0.156250  0.031250  0.000000     12.000000
  0.187500  0.031250  0.000000     12.000000
  0.218750  0.031250  0.000000     12.000000
  0.250000  0.031250  0.000000     12.000000
  0.281250  0.031250  0.000000     12.000000
  0.312500  0.031250  0.000000     12.000000
  0.343750  0.031250  0.000000     12.000000
  0.375000  0.031250  0.000000     12.000000
  0.406250  0.031250  0.000000     12.000000
  0.437500  0.031250  0.000000     12.000000
  0.468750  0.031250  0.000000     12.000000
  0.062500  0.062500  0.000000      6.000000
  0.093750  0.062500  0.000000     12.000000
  0.125000  0.062500  0.000000     12.000000
  0.156250  0.062500  0.000000     12.000000
  0.187500  0.062500  0.000000     12.000000
  0.218750  0.062500  0.000000     12.000000
  0.250000  0.062500  0.000000     12.000000
  0.281250  0.062500  0.000000     12.000000
  0.312500  0.062500  0.000000     12.000000
  0.343750  0.062500  0.000000     12.000000
  0.375000  0.062500  0.000000     12.000000
  0.406250  0.062500  0.000000     12.000000
  0.437500  0.062500  0.000000     12.000000
  0.468750  0.062500  0.000000      6.000000
  0.093750  0.093750  0.000000      6.000000
  0.125000  0.093750  0.000000     12.000000
  0.156250  0.093750  0.000000     12.000000
  0.187500  0.093750  0.000000     12.000000
  0.218750  0.093750  0.000000     12.000000
  0.250000  0.093750  0.000000     12.000000
  0.281250  0.093750  0.000000     12.000000
  0.312500  0.093750  0.000000     12.000000
  0.343750  0.093750  0.000000     12.000000
  0.375000  0.093750  0.000000     12.000000
  0.406250  0.093750  0.000000     12.000000
  0.437500  0.093750  0.000000     12.000000
  0.125000  0.125000  0.000000      6.000000
  0.156250  0.125000  0.000000     12.000000
  0.187500  0.125000  0.000000     12.000000
  0.218750  0.125000  0.000000     12.000000
  0.250000  0.125000  0.000000     12.000000
  0.281250  0.125000  0.000000     12.000000
  0.312500  0.125000  0.000000     12.000000
  0.343750  0.125000  0.000000     12.000000
  0.375000  0.125000  0.000000     12.000000
  0.406250  0.125000  0.000000     12.000000
  0.437500  0.125000  0.000000      6.000000
  0.156250  0.156250  0.000000      6.000000
  0.187500  0.156250  0.000000     12.000000
  0.218750  0.156250  0.000000     12.000000
  0.250000  0.156250  0.000000     12.000000
  0.281250  0.156250  0.000000     12.000000
  0.312500  0.156250  0.000000     12.000000
  0.343750  0.156250  0.000000     12.000000
  0.375000  0.156250  0.000000     12.000000
  0.406250  0.156250  0.000000     12.000000
  0.187500  0.187500  0.000000      6.000000
  0.218750  0.187500  0.000000     12.000000
  0.250000  0.187500  0.000000     12.000000
  0.281250  0.187500  0.000000     12.000000
  0.312500  0.187500  0.000000     12.000000
  0.343750  0.187500  0.000000     12.000000
  0.375000  0.187500  0.000000     12.000000
  0.406250  0.187500  0.000000      6.000000
  0.218750  0.218750  0.000000      6.000000
  0.250000  0.218750  0.000000     12.000000
  0.281250  0.218750  0.000000     12.000000
  0.312500  0.218750  0.000000     12.000000
  0.343750  0.218750  0.000000     12.000000
  0.375000  0.218750  0.000000     12.000000
  0.250000  0.250000  0.000000      6.000000
  0.281250  0.250000  0.000000     12.000000
  0.312500  0.250000  0.000000     12.000000
  0.343750  0.250000  0.000000     12.000000
  0.375000  0.250000  0.000000      6.000000
  0.281250  0.281250  0.000000      6.000000
  0.312500  0.281250  0.000000     12.000000
  0.343750  0.281250  0.000000     12.000000
  0.312500  0.312500  0.000000      6.000000
  0.343750  0.312500  0.000000      6.000000
  0.000000  0.000000  0.062500      2.000000
  0.031250  0.000000  0.062500     12.000000
  0.062500  0.000000  0.062500     12.000000
  0.093750  0.000000  0.062500     12.000000
  0.125000  0.000000  0.062500     12.000000
  0.156250  0.000000  0.062500     12.000000
  0.187500  0.000000  0.062500     12.000000
  0.218750  0.000000  0.062500     12.000000
  0.250000  0.000000  0.062500     12.000000
  0.281250  0.000000  0.062500     12.000000
  0.312500  0.000000  0.062500     12.000000
  0.343750  0.000000  0.062500     12.000000
  0.375000  0.000000  0.062500     12.000000
  0.406250  0.000000  0.062500     12.000000
  0.437500  0.000000  0.062500     12.000000
  0.468750  0.000000  0.062500     12.000000
  0.500000  0.000000  0.062500      6.000000
  0.031250  0.031250  0.062500     12.000000
  0.062500  0.031250  0.062500     24.000000
  0.093750  0.031250  0.062500     24.000000
  0.125000  0.031250  0.062500     24.000000
  0.156250  0.031250  0.062500     24.000000
  0.187500  0.031250  0.062500     24.000000
  0.218750  0.031250  0.062500     24.000000
  0.250000  0.031250  0.062500     24.000000
  0.281250  0.031250  0.062500     24.000000
  0.312500  0.031250  0.062500     24.000000
  0.343750  0.031250  0.062500     24.000000
  0.375000  0.031250  0.062500     24.000000
  0.406250  0.031250  0.062500     24.000000
  0.437500  0.031250  0.062500     24.000000
  0.468750  0.031250  0.062500     24.000000
  0.062500  0.062500  0.062500     12.000000
  0.093750  0.062500  0.062500     24.000000
  0.125000  0.062500  0.062500     24.000000
  0.156250  0.062500  0.062500     24.000000
  0.187500  0.062500  0.062500     24.000000
  0.218750  0.062500  0.062500     24.000000
  0.250000  0.062500  0.062500     24.000000
  0.281250  0.062500  0.062500     24.000000
  0.312500  0.062500  0.062500     24.000000
  0.343750  0.062500  0.062500     24.000000
  0.375000  0.062500  0.062500     24.000000
  0.406250  0.062500  0.062500     24.000000
  0.437500  0.062500  0.062500     24.000000
  0.468750  0.062500  0.062500     12.000000
  0.093750  0.093750  0.062500     12.000000
  0.125000  0.093750  0.062500     24.000000
  0.156250  0.093750  0.062500     24.000000
  0.187500  0.093750  0.062500     24.000000
  0.218750  0.093750  0.062500     24.000000
  0.250000  0.093750  0.062500     24.000000
  0.281250  0.093750  0.062500     24.000000
  0.312500  0.093750  0.062500     24.000000
  0.343750  0.093750  0.062500     24.000000
  0.375000  0.093750  0.062500     24.000000
  0.406250  0.093750  0.062500     24.000000
  0.437500  0.093750  0.062500     24.000000
  0.125000  0.125000  0.062500     12.000000
  0.156250  0.125000  0.062500     24.000000
  0.187500  0.125000  0.062500     24.000000
  0.218750  0.125000  0.062500     24.000000
  0.250000  0.125000  0.062500     24.000000
  0.281250  0.125000  0.062500     24.000000
  0.312500  0.125000  0.062500     24.000000
  0.343750  0.125000  0.062500     24.000000
  0.375000  0.125000  0.062500     24.000000
  0.406250  0.125000  0.062500     24.000000
  0.437500  0.125000  0.062500     12.000000
  0.156250  0.156250  0.062500     12.000000
  0.187500  0.156250  0.062500     24.000000
  0.218750  0.156250  0.062500     24.000000
  0.250000  0.156250  0.062500     24.000000
  0.281250  0.156250  0.062500     24.000000
  0.312500  0.156250  0.062500     24.000000
  0.343750  0.156250  0.062500     24.000000
  0.375000  0.156250  0.062500     24.000000
  0.406250  0.156250  0.062500     24.000000
  0.187500  0.187500  0.062500     12.000000
  0.218750  0.187500  0.062500     24.000000
  0.250000  0.187500  0.062500     24.000000
  0.281250  0.187500  0.062500     24.000000
  0.312500  0.187500  0.062500     24.000000
  0.343750  0.187500  0.062500     24.000000
  0.375000  0.187500  0.062500     24.000000
  0.406250  0.187500  0.062500     12.000000
  0.218750  0.218750  0.062500     12.000000
  0.250000  0.218750  0.062500     24.000000
  0.281250  0.218750  0.062500     24.000000
  0.312500  0.218750  0.062500     24.000000
  0.343750  0.218750  0.062500     24.000000
  0.375000  0.218750  0.062500     24.000000
  0.250000  0.250000  0.062500     12.000000
  0.281250  0.250000  0.062500     24.000000
  0.312500  0.250000  0.062500     24.000000
  0.343750  0.250000  0.062500     24.000000
  0.375000  0.250000  0.062500     12.000000
  0.281250  0.281250  0.062500     12.000000
  0.312500  0.281250  0.062500     24.000000
  0.343750  0.281250  0.062500     24.000000
  0.312500  0.312500  0.062500     12.000000
  0.343750  0.312500  0.062500     12.000000
  0.000000  0.000000  0.125000      2.000000
  0.031250  0.000000  0.125000     12.000000
  0.062500  0.000000  0.125000     12.000000
  0.093750  0.000000  0.125000     12.000000
  0.125000  0.000000  0.125000     12.000000
  0.156250  0.000000  0.125000     12.000000
  0.187500  0.000000  0.125000     12.000000
  0.218750  0.000000  0.125000     12.000000
  0.250000  0.000000  0.125000     12.000000
  0.281250  0.000000  0.125000     12.000000
  0.312500  0.000000  0.125000     12.000000
  0.343750  0.000000  0.125000     12.000000
  0.375000  0.000000  0.125000     12.000000
  0.406250  0.000000  0.125000     12.000000
  0.437500  0.000000  0.125000     12.000000
  0.468750  0.000000  0.125000     12.000000
  0.500000  0.000000  0.125000      6.000000
  0.031250  0.031250  0.125000     12.000000
  0.062500  0.031250  0.125000     24.000000
  0.093750  0.031250  0.125000     24.000000
  0.125000  0.031250  0.125000     24.000000
  0.156250  0.031250  0.125000     24.000000
  0.187500  0.031250  0.125000     24.000000
  0.218750  0.031250  0.125000     24.000000
  0.250000  0.031250  0.125000     24.000000
  0.281250  0.031250  0.125000     24.000000
  0.312500  0.031250  0.125000     24.000000
  0.343750  0.031250  0.125000     24.000000
  0.375000  0.031250  0.125000     24.000000
  0.406250  0.031250  0.125000     24.000000
  0.437500  0.031250  0.125000     24.000000
  0.468750  0.031250  0.125000     24.000000
  0.062500  0.062500  0.125000     12.000000
  0.093750  0.062500  0.125000     24.000000
  0.125000  0.062500  0.125000     24.000000
  0.156250  0.062500  0.125000     24.000000
  0.187500  0.062500  0.125000     24.000000
  0.218750  0.062500  0.125000     24.000000
  0.250000  0.062500  0.125000     24.000000
  0.281250  0.062500  0.125000     24.000000
  0.312500  0.062500  0.125000     24.000000
  0.343750  0.062500  0.125000     24.000000
  0.375000  0.062500  0.125000     24.000000
  0.406250  0.062500  0.125000     24.000000
  0.437500  0.062500  0.125000     24.000000
  0.468750  0.062500  0.125000     12.000000
  0.093750  0.093750  0.125000     12.000000
  0.125000  0.093750  0.125000     24.000000
  0.156250  0.093750  0.125000     24.000000
  0.187500  0.093750  0.125000     24.000000
  0.218750  0.093750  0.125000     24.000000
  0.250000  0.093750  0.125000     24.000000
  0.281250  0.093750  0.125000     24.000000
  0.312500  0.093750  0.125000     24.000000
  0.343750  0.093750  0.125000     24.000000
  0.375000  0.093750  0.125000     24.000000
  0.406250  0.093750  0.125000     24.000000
  0.437500  0.093750  0.125000     24.000000
  0.125000  0.125000  0.125000     12.000000
  0.156250  0.125000  0.125000     24.000000
  0.187500  0.125000  0.125000     24.000000
  0.218750  0.125000  0.125000     24.000000
  0.250000  0.125000  0.125000     24.000000
  0.281250  0.125000  0.125000     24.000000
  0.312500  0.125000  0.125000     24.000000
  0.343750  0.125000  0.125000     24.000000
  0.375000  0.125000  0.125000     24.000000
  0.406250  0.125000  0.125000     24.000000
  0.437500  0.125000  0.125000     12.000000
  0.156250  0.156250  0.125000     12.000000
  0.187500  0.156250  0.125000     24.000000
  0.218750  0.156250  0.125000     24.000000
  0.250000  0.156250  0.125000     24.000000
  0.281250  0.156250  0.125000     24.000000
  0.312500  0.156250  0.125000     24.000000
  0.343750  0.156250  0.125000     24.000000
  0.375000  0.156250  0.125000     24.000000
  0.406250  0.156250  0.125000     24.000000
  0.187500  0.187500  0.125000     12.000000
  0.218750  0.187500  0.125000     24.000000
  0.250000  0.187500  0.125000     24.000000
  0.281250  0.187500  0.125000     24.000000
  0.312500  0.187500  0.125000     24.000000
  0.343750  0.187500  0.125000     24.000000
  0.375000  0.187500  0.125000     24.000000
  0.406250  0.187500  0.125000     12.000000
  0.218750  0.218750  0.125000     12.000000
  0.250000  0.218750  0.125000     24.000000
  0.281250  0.218750  0.125000     24.000000
  0.312500  0.218750  0.125000     24.000000
  0.343750  0.218750  0.125000     24.000000
  0.375000  0.218750  0.125000     24.000000
  0.250000  0.250000  0.125000     12.000000
  0.281250  0.250000  0.125000     24.000000
  0.312500  0.250000  0.125000     24.000000
  0.343750  0.250000  0.125000     24.000000
  0.375000  0.250000  0.125000     12.000000
  0.281250  0.281250  0.125000     12.000000
  0.312500  0.281250  0.125000     24.000000
  0.343750  0.281250  0.125000     24.000000
  0.312500  0.312500  0.125000     12.000000
  0.343750  0.312500  0.125000     12.000000
  0.000000  0.000000  0.187500      2.000000
  0.031250  0.000000  0.187500     12.000000
  0.062500  0.000000  0.187500     12.000000
  0.093750  0.000000  0.187500     12.000000
  0.125000  0.000000  0.187500     12.000000
  0.156250  0.000000  0.187500     12.000000
  0.187500  0.000000  0.187500     12.000000
  0.218750  0.000000  0.187500     12.000000
  0.250000  0.000000  0.187500     12.000000
  0.281250  0.000000  0.187500     12.000000
  0.312500  0.000000  0.187500     12.000000
  0.343750  0.000000  0.187500     12.000000
  0.375000  0.000000  0.187500     12.000000
  0.406250  0.000000  0.187500     12.000000
  0.437500  0.000000  0.187500     12.000000
  0.468750  0.000000  0.187500     12.000000
  0.500000  0.000000  0.187500      6.000000
  0.031250  0.031250  0.187500     12.000000
  0.062500  0.031250  0.187500     24.000000
  0.093750  0.031250  0.187500     24.000000
  0.125000  0.031250  0.187500     24.000000
  0.156250  0.031250  0.187500     24.000000
  0.187500  0.031250  0.187500     24.000000
  0.218750  0.031250  0.187500     24.000000
  0.250000  0.031250  0.187500     24.000000
  0.281250  0.031250  0.187500     24.000000
  0.312500  0.031250  0.187500     24.000000
  0.343750  0.031250  0.187500     24.000000
  0.375000  0.031250  0.187500     24.000000
  0.406250  0.031250  0.187500     24.000000
  0.437500  0.031250  0.187500     24.000000
  0.468750  0.031250  0.187500     24.000000
  0.062500  0.062500  0.187500     12.000000
  0.093750  0.062500  0.187500     24.000000
  0.125000  0.062500  0.187500     24.000000
  0.156250  0.062500  0.187500     24.000000
  0.187500  0.062500  0.187500     24.000000
  0.218750  0.062500  0.187500     24.000000
  0.250000  0.062500  0.187500     24.000000
  0.281250  0.062500  0.187500     24.000000
  0.312500  0.062500  0.187500     24.000000
  0.343750  0.062500  0.187500     24.000000
  0.375000  0.062500  0.187500     24.000000
  0.406250  0.062500  0.187500     24.000000
  0.437500  0.062500  0.187500     24.000000
  0.468750  0.062500  0.187500     12.000000
  0.093750  0.093750  0.187500     12.000000
  0.125000  0.093750  0.187500     24.000000
  0.156250  0.093750  0.187500     24.000000
  0.187500  0.093750  0.187500     24.000000
  0.218750  0.093750  0.187500     24.000000
  0.250000  0.093750  0.187500     24.000000
  0.281250  0.093750  0.187500     24.000000
  0.312500  0.093750  0.187500     24.000000
  0.343750  0.093750  0.187500     24.000000
  0.375000  0.093750  0.187500     24.000000
  0.406250  0.093750  0.187500     24.000000
  0.437500  0.093750  0.187500     24.000000
  0.125000  0.125000  0.187500     12.000000
  0.156250  0.125000  0.187500     24.000000
  0.187500  0.125000  0.187500     24.000000
  0.218750  0.125000  0.187500     24.000000
  0.250000  0.125000  0.187500     24.000000
  0.281250  0.125000  0.187500     24.000000
  0.312500  0.125000  0.187500     24.000000
  0.343750  0.125000  0.187500     24.000000
  0.375000  0.125000  0.187500     24.000000
  0.406250  0.125000  0.187500     24.000000
  0.437500  0.125000  0.187500     12.000000
  0.156250  0.156250  0.187500     12.000000
  0.187500  0.156250  0.187500     24.000000
  0.218750  0.156250  0.187500     24.000000
  0.250000  0.156250  0.187500     24.000000
  0.281250  0.156250  0.187500     24.000000
  0.312500  0.156250  0.187500     24.000000
  0.343750  0.156250  0.187500     24.000000
  0.375000  0.156250  0.187500     24.000000
  0.406250  0.156250  0.187500     24.000000
  0.187500  0.187500  0.187500     12.000000
  0.218750  0.187500  0.187500     24.000000
  0.250000  0.187500  0.187500     24.000000
  0.281250  0.187500  0.187500     24.000000
  0.312500  0.187500  0.187500     24.000000
  0.343750  0.187500  0.187500     24.000000
  0.375000  0.187500  0.187500     24.000000
  0.406250  0.187500  0.187500     12.000000
  0.218750  0.218750  0.187500     12.000000
  0.250000  0.218750  0.187500     24.000000
  0.281250  0.218750  0.187500     24.000000
  0.312500  0.218750  0.187500     24.000000
  0.343750  0.218750  0.187500     24.000000
  0.375000  0.218750  0.187500     24.000000
  0.250000  0.250000  0.187500     12.000000
  0.281250  0.250000  0.187500     24.000000
  0.312500  0.250000  0.187500     24.000000
  0.343750  0.250000  0.187500     24.000000
  0.375000  0.250000  0.187500     12.000000
  0.281250  0.281250  0.187500     12.000000
  0.312500  0.281250  0.187500     24.000000
  0.343750  0.281250  0.187500     24.000000
  0.312500  0.312500  0.187500     12.000000
  0.343750  0.312500  0.187500     12.000000
  0.000000  0.000000  0.250000      2.000000
  0.031250  0.000000  0.250000     12.000000
  0.062500  0.000000  0.250000     12.000000
  0.093750  0.000000  0.250000     12.000000
  0.125000  0.000000  0.250000     12.000000
  0.156250  0.000000  0.250000     12.000000
  0.187500  0.000000  0.250000     12.000000
  0.218750  0.000000  0.250000     12.000000
  0.250000  0.000000  0.250000     12.000000
  0.281250  0.000000  0.250000     12.000000
  0.312500  0.000000  0.250000     12.000000
  0.343750  0.000000  0.250000     12.000000
  0.375000  0.000000  0.250000     12.000000
  0.406250  0.000000  0.250000     12.000000
  0.437500  0.000000  0.250000     12.000000
  0.468750  0.000000  0.250000     12.000000
  0.500000  0.000000  0.250000      6.000000
  0.031250  0.031250  0.250000     12.000000
  0.062500  0.031250  0.250000     24.000000
  0.093750  0.031250  0.250000     24.000000
  0.125000  0.031250  0.250000     24.000000
  0.156250  0.031250  0.250000     24.000000
  0.187500  0.031250  0.250000     24.000000
  0.218750  0.031250  0.250000     24.000000
  0.250000  0.031250  0.250000     24.000000
  0.281250  0.031250  0.250000     24.000000
  0.312500  0.031250  0.250000     24.000000
  0.343750  0.031250  0.250000     24.000000
  0.375000  0.031250  0.250000     24.000000
  0.406250  0.031250  0.250000     24.000000
  0.437500  0.031250  0.250000     24.000000
  0.468750  0.031250  0.250000     24.000000
  0.062500  0.062500  0.250000     12.000000
  0.093750  0.062500  0.250000     24.000000
  0.125000  0.062500  0.250000     24.000000
  0.156250  0.062500  0.250000     24.000000
  0.187500  0.062500  0.250000     24.000000
  0.218750  0.062500  0.250000     24.000000
  0.250000  0.062500  0.250000     24.000000
  0.281250  0.062500  0.250000     24.000000
  0.312500  0.062500  0.250000     24.000000
  0.343750  0.062500  0.250000     24.000000
  0.375000  0.062500  0.250000     24.000000
  0.406250  0.062500  0.250000     24.000000
  0.437500  0.062500  0.250000     24.000000
  0.468750  0.062500  0.250000     12.000000
  0.093750  0.093750  0.250000     12.000000
  0.125000  0.093750  0.250000     24.000000
  0.156250  0.093750  0.250000     24.000000
  0.187500  0.093750  0.250000     24.000000
  0.218750  0.093750  0.250000     24.000000
  0.250000  0.093750  0.250000     24.000000
  0.281250  0.093750  0.250000     24.000000
  0.312500  0.093750  0.250000     24.000000
  0.343750  0.093750  0.250000     24.000000
  0.375000  0.093750  0.250000     24.000000
  0.406250  0.093750  0.250000     24.000000
  0.437500  0.093750  0.250000     24.000000
  0.125000  0.125000  0.250000     12.000000
  0.156250  0.125000  0.250000     24.000000
  0.187500  0.125000  0.250000     24.000000
  0.218750  0.125000  0.250000     24.000000
  0.250000  0.125000  0.250000     24.000000
  0.281250  0.125000  0.250000     24.000000
  0.312500  0.125000  0.250000     24.000000
  0.343750  0.125000  0.250000     24.000000
  0.375000  0.125000  0.250000     24.000000
  0.406250  0.125000  0.250000     24.000000
  0.437500  0.125000  0.250000     12.000000
  0.156250  0.156250  0.250000     12.000000
  0.187500  0.156250  0.250000     24.000000
  0.218750  0.156250  0.250000     24.000000
  0.250000  0.156250  0.250000     24.000000
  0.281250  0.156250  0.250000     24.000000
  0.312500  0.156250  0.250000     24.000000
  0.343750  0.156250  0.250000     24.000000
  0.375000  0.156250  0.250000     24.000000
  0.406250  0.156250  0.250000     24.000000
  0.187500  0.187500  0.250000     12.000000
  0.218750  0.187500  0.250000     24.000000
  0.250000  0.187500  0.250000     24.000000
  0.281250  0.187500  0.250000     24.000000
  0.312500  0.187500  0.250000     24.000000
  0.343750  0.187500  0.250000     24.000000
  0.375000  0.187500  0.250000     24.000000
  0.406250  0.187500  0.250000     12.000000
  0.218750  0.218750  0.250000     12.000000
  0.250000  0.218750  0.250000     24.000000
  0.281250  0.218750  0.250000     24.000000
  0.312500  0.218750  0.250000     24.000000
  0.343750  0.218750  0.250000     24.000000
  0.375000  0.218750  0.250000     24.000000
  0.250000  0.250000  0.250000     12.000000
  0.281250  0.250000  0.250000     24.000000
  0.312500  0.250000  0.250000     24.000000
  0.343750  0.250000  0.250000     24.000000
  0.375000  0.250000  0.250000     12.000000
  0.281250  0.281250  0.250000     12.000000
  0.312500  0.281250  0.250000     24.000000
  0.343750  0.281250  0.250000     24.000000
  0.312500  0.312500  0.250000     12.000000
  0.343750  0.312500  0.250000     12.000000
  0.000000  0.000000  0.312500      2.000000
  0.031250  0.000000  0.312500     12.000000
  0.062500  0.000000  0.312500     12.000000
  0.093750  0.000000  0.312500     12.000000
  0.125000  0.000000  0.312500     12.000000
  0.156250  0.000000  0.312500     12.000000
  0.187500  0.000000  0.312500     12.000000
  0.218750  0.000000  0.312500     12.000000
  0.250000  0.000000  0.312500     12.000000
  0.281250  0.000000  0.312500     12.000000
  0.312500  0.000000  0.312500     12.000000
  0.343750  0.000000  0.312500     12.000000
  0.375000  0.000000  0.312500     12.000000
  0.406250  0.000000  0.312500     12.000000
  0.437500  0.000000  0.312500     12.000000
  0.468750  0.000000  0.312500     12.000000
  0.500000  0.000000  0.312500      6.000000
  0.031250  0.031250  0.312500     12.000000
  0.062500  0.031250  0.312500     24.000000
  0.093750  0.031250  0.312500     24.000000
  0.125000  0.031250  0.312500     24.000000
  0.156250  0.031250  0.312500     24.000000
  0.187500  0.031250  0.312500     24.000000
  0.218750  0.031250  0.312500     24.000000
  0.250000  0.031250  0.312500     24.000000
  0.281250  0.031250  0.312500     24.000000
  0.312500  0.031250  0.312500     24.000000
  0.343750  0.031250  0.312500     24.000000
  0.375000  0.031250  0.312500     24.000000
  0.406250  0.031250  0.312500     24.000000
  0.437500  0.031250  0.312500     24.000000
  0.468750  0.031250  0.312500     24.000000
  0.062500  0.062500  0.312500     12.000000
  0.093750  0.062500  0.312500     24.000000
  0.125000  0.062500  0.312500     24.000000
  0.156250  0.062500  0.312500     24.000000
  0.187500  0.062500  0.312500     24.000000
  0.218750  0.062500  0.312500     24.000000
  0.250000  0.062500  0.312500     24.000000
  0.281250  0.062500  0.312500     24.000000
  0.312500  0.062500  0.312500     24.000000
  0.343750  0.062500  0.312500     24.000000
  0.375000  0.062500  0.312500     24.000000
  0.406250  0.062500  0.312500     24.000000
  0.437500  0.062500  0.312500     24.000000
  0.468750  0.062500  0.312500     12.000000
  0.093750  0.093750  0.312500     12.000000
  0.125000  0.093750  0.312500     24.000000
  0.156250  0.093750  0.312500     24.000000
  0.187500  0.093750  0.312500     24.000000
  0.218750  0.093750  0.312500     24.000000
  0.250000  0.093750  0.312500     24.000000
  0.281250  0.093750  0.312500     24.000000
  0.312500  0.093750  0.312500     24.000000
  0.343750  0.093750  0.312500     24.000000
  0.375000  0.093750  0.312500     24.000000
  0.406250  0.093750  0.312500     24.000000
  0.437500  0.093750  0.312500     24.000000
  0.125000  0.125000  0.312500     12.000000
  0.156250  0.125000  0.312500     24.000000
  0.187500  0.125000  0.312500     24.000000
  0.218750  0.125000  0.312500     24.000000
  0.250000  0.125000  0.312500     24.000000
  0.281250  0.125000  0.312500     24.000000
  0.312500  0.125000  0.312500     24.000000
  0.343750  0.125000  0.312500     24.000000
  0.375000  0.125000  0.312500     24.000000
  0.406250  0.125000  0.312500     24.000000
  0.437500  0.125000  0.312500     12.000000
  0.156250  0.156250  0.312500     12.000000
  0.187500  0.156250  0.312500     24.000000
  0.218750  0.156250  0.312500     24.000000
  0.250000  0.156250  0.312500     24.000000
  0.281250  0.156250  0.312500     24.000000
  0.312500  0.156250  0.312500     24.000000
  0.343750  0.156250  0.312500     24.000000
  0.375000  0.156250  0.312500     24.000000
  0.406250  0.156250  0.312500     24.000000
  0.187500  0.187500  0.312500     12.000000
  0.218750  0.187500  0.312500     24.000000
  0.250000  0.187500  0.312500     24.000000
  0.281250  0.187500  0.312500     24.000000
  0.312500  0.187500  0.312500     24.000000
  0.343750  0.187500  0.312500     24.000000
  0.375000  0.187500  0.312500     24.000000
  0.406250  0.187500  0.312500     12.000000
  0.218750  0.218750  0.312500     12.000000
  0.250000  0.218750  0.312500     24.000000
  0.281250  0.218750  0.312500     24.000000
  0.312500  0.218750  0.312500     24.000000
  0.343750  0.218750  0.312500     24.000000
  0.375000  0.218750  0.312500     24.000000
  0.250000  0.250000  0.312500     12.000000
  0.281250  0.250000  0.312500     24.000000
  0.312500  0.250000  0.312500     24.000000
  0.343750  0.250000  0.312500     24.000000
  0.375000  0.250000  0.312500     12.000000
  0.281250  0.281250  0.312500     12.000000
  0.312500  0.281250  0.312500     24.000000
  0.343750  0.281250  0.312500     24.000000
  0.312500  0.312500  0.312500     12.000000
  0.343750  0.312500  0.312500     12.000000
  0.000000  0.000000  0.375000      2.000000
  0.031250  0.000000  0.375000     12.000000
  0.062500  0.000000  0.375000     12.000000
  0.093750  0.000000  0.375000     12.000000
  0.125000  0.000000  0.375000     12.000000
  0.156250  0.000000  0.375000     12.000000
  0.187500  0.000000  0.375000     12.000000
  0.218750  0.000000  0.375000     12.000000
  0.250000  0.000000  0.375000     12.000000
  0.281250  0.000000  0.375000     12.000000
  0.312500  0.000000  0.375000     12.000000
  0.343750  0.000000  0.375000     12.000000
  0.375000  0.000000  0.375000     12.000000
  0.406250  0.000000  0.375000     12.000000
  0.437500  0.000000  0.375000     12.000000
  0.468750  0.000000  0.375000     12.000000
  0.500000  0.000000  0.375000      6.000000
  0.031250  0.031250  0.375000     12.000000
  0.062500  0.031250  0.375000     24.000000
  0.093750  0.031250  0.375000     24.000000
  0.125000  0.031250  0.375000     24.000000
  0.156250  0.031250  0.375000     24.000000
  0.187500  0.031250  0.375000     24.000000
  0.218750  0.031250  0.375000     24.000000
  0.250000  0.031250  0.375000     24.000000
  0.281250  0.031250  0.375000     24.000000
  0.312500  0.031250  0.375000     24.000000
  0.343750  0.031250  0.375000     24.000000
  0.375000  0.031250  0.375000     24.000000
  0.406250  0.031250  0.375000     24.000000
  0.437500  0.031250  0.375000     24.000000
  0.468750  0.031250  0.375000     24.000000
  0.062500  0.062500  0.375000     12.000000
  0.093750  0.062500  0.375000     24.000000
  0.125000  0.062500  0.375000     24.000000
  0.156250  0.062500  0.375000     24.000000
  0.187500  0.062500  0.375000     24.000000
  0.218750  0.062500  0.375000     24.000000
  0.250000  0.062500  0.375000     24.000000
  0.281250  0.062500  0.375000     24.000000
  0.312500  0.062500  0.375000     24.000000
  0.343750  0.062500  0.375000     24.000000
  0.375000  0.062500  0.375000     24.000000
  0.406250  0.062500  0.375000     24.000000
  0.437500  0.062500  0.375000     24.000000
  0.468750  0.062500  0.375000     12.000000
  0.093750  0.093750  0.375000     12.000000
  0.125000  0.093750  0.375000     24.000000
  0.156250  0.093750  0.375000     24.000000
  0.187500  0.093750  0.375000     24.000000
  0.218750  0.093750  0.375000     24.000000
  0.250000  0.093750  0.375000     24.000000
  0.281250  0.093750  0.375000     24.000000
  0.312500  0.093750  0.375000     24.000000
  0.343750  0.093750  0.375000     24.000000
  0.375000  0.093750  0.375000     24.000000
  0.406250  0.093750  0.375000     24.000000
  0.437500  0.093750  0.375000     24.000000
  0.125000  0.125000  0.375000     12.000000
  0.156250  0.125000  0.375000     24.000000
  0.187500  0.125000  0.375000     24.000000
  0.218750  0.125000  0.375000     24.000000
  0.250000  0.125000  0.375000     24.000000
  0.281250  0.125000  0.375000     24.000000
  0.312500  0.125000  0.375000     24.000000
  0.343750  0.125000  0.375000     24.000000
  0.375000  0.125000  0.375000     24.000000
  0.406250  0.125000  0.375000     24.000000
  0.437500  0.125000  0.375000     12.000000
  0.156250  0.156250  0.375000     12.000000
  0.187500  0.156250  0.375000     24.000000
  0.218750  0.156250  0.375000     24.000000
  0.250000  0.156250  0.375000     24.000000
  0.281250  0.156250  0.375000     24.000000
  0.312500  0.156250  0.375000     24.000000
  0.343750  0.156250  0.375000     24.000000
  0.375000  0.156250  0.375000     24.000000
  0.406250  0.156250  0.375000     24.000000
  0.187500  0.187500  0.375000     12.000000
  0.218750  0.187500  0.375000     24.000000
  0.250000  0.187500  0.375000     24.000000
  0.281250  0.187500  0.375000     24.000000
  0.312500  0.187500  0.375000     24.000000
  0.343750  0.187500  0.375000     24.000000
  0.375000  0.187500  0.375000     24.000000
  0.406250  0.187500  0.375000     12.000000
  0.218750  0.218750  0.375000     12.000000
  0.250000  0.218750  0.375000     24.000000
  0.281250  0.218750  0.375000     24.000000
  0.312500  0.218750  0.375000     24.000000
  0.343750  0.218750  0.375000     24.000000
  0.375000  0.218750  0.375000     24.000000
  0.250000  0.250000  0.375000     12.000000
  0.281250  0.250000  0.375000     24.000000
  0.312500  0.250000  0.375000     24.000000
  0.343750  0.250000  0.375000     24.000000
  0.375000  0.250000  0.375000     12.000000
  0.281250  0.281250  0.375000     12.000000
  0.312500  0.281250  0.375000     24.000000
  0.343750  0.281250  0.375000     24.000000
  0.312500  0.312500  0.375000     12.000000
  0.343750  0.312500  0.375000     12.000000
  0.000000  0.000000  0.437500      2.000000
  0.031250  0.000000  0.437500     12.000000
  0.062500  0.000000  0.437500     12.000000
  0.093750  0.000000  0.437500     12.000000
  0.125000  0.000000  0.437500     12.000000
  0.156250  0.000000  0.437500     12.000000
  0.187500  0.000000  0.437500     12.000000
  0.218750  0.000000  0.437500     12.000000
  0.250000  0.000000  0.437500     12.000000
  0.281250  0.000000  0.437500     12.000000
  0.312500  0.000000  0.437500     12.000000
  0.343750  0.000000  0.437500     12.000000
  0.375000  0.000000  0.437500     12.000000
  0.406250  0.000000  0.437500     12.000000
  0.437500  0.000000  0.437500     12.000000
  0.468750  0.000000  0.437500     12.000000
  0.500000  0.000000  0.437500      6.000000
  0.031250  0.031250  0.437500     12.000000
  0.062500  0.031250  0.437500     24.000000
  0.093750  0.031250  0.437500     24.000000
  0.125000  0.031250  0.437500     24.000000
  0.156250  0.031250  0.437500     24.000000
  0.187500  0.031250  0.437500     24.000000
  0.218750  0.031250  0.437500     24.000000
  0.250000  0.031250  0.437500     24.000000
  0.281250  0.031250  0.437500     24.000000
  0.312500  0.031250  0.437500     24.000000
  0.343750  0.031250  0.437500     24.000000
  0.375000  0.031250  0.437500     24.000000
  0.406250  0.031250  0.437500     24.000000
  0.437500  0.031250  0.437500     24.000000
  0.468750  0.031250  0.437500     24.000000
  0.062500  0.062500  0.437500     12.000000
  0.093750  0.062500  0.437500     24.000000
  0.125000  0.062500  0.437500     24.000000
  0.156250  0.062500  0.437500     24.000000
  0.187500  0.062500  0.437500     24.000000
  0.218750  0.062500  0.437500     24.000000
  0.250000  0.062500  0.437500     24.000000
  0.281250  0.062500  0.437500     24.000000
  0.312500  0.062500  0.437500     24.000000
  0.343750  0.062500  0.437500     24.000000
  0.375000  0.062500  0.437500     24.000000
  0.406250  0.062500  0.437500     24.000000
  0.437500  0.062500  0.437500     24.000000
  0.468750  0.062500  0.437500     12.000000
  0.093750  0.093750  0.437500     12.000000
  0.125000  0.093750  0.437500     24.000000
  0.156250  0.093750  0.437500     24.000000
  0.187500  0.093750  0.437500     24.000000
  0.218750  0.093750  0.437500     24.000000
  0.250000  0.093750  0.437500     24.000000
  0.281250  0.093750  0.437500     24.000000
  0.312500  0.093750  0.437500     24.000000
  0.343750  0.093750  0.437500     24.000000
  0.375000  0.093750  0.437500     24.000000
  0.406250  0.093750  0.437500     24.000000
  0.437500  0.093750  0.437500     24.000000
  0.125000  0.125000  0.437500     12.000000
  0.156250  0.125000  0.437500     24.000000
  0.187500  0.125000  0.437500     24.000000
  0.218750  0.125000  0.437500     24.000000
  0.250000  0.125000  0.437500     24.000000
  0.281250  0.125000  0.437500     24.000000
  0.312500  0.125000  0.437500     24.000000
  0.343750  0.125000  0.437500     24.000000
  0.375000  0.125000  0.437500     24.000000
  0.406250  0.125000  0.437500     24.000000
  0.437500  0.125000  0.437500     12.000000
  0.156250  0.156250  0.437500     12.000000
  0.187500  0.156250  0.437500     24.000000
  0.218750  0.156250  0.437500     24.000000
  0.250000  0.156250  0.437500     24.000000
  0.281250  0.156250  0.437500     24.000000
  0.312500  0.156250  0.437500     24.000000
  0.343750  0.156250  0.437500     24.000000
  0.375000  0.156250  0.437500     24.000000
  0.406250  0.156250  0.437500     24.000000
  0.187500  0.187500  0.437500     12.000000
  0.218750  0.187500  0.437500     24.000000
  0.250000  0.187500  0.437500     24.000000
  0.281250  0.187500  0.437500     24.000000
  0.312500  0.187500  0.437500     24.000000
  0.343750  0.187500  0.437500     24.000000
  0.375000  0.187500  0.437500     24.000000
  0.406250  0.187500  0.437500     12.000000
  0.218750  0.218750  0.437500     12.000000
  0.250000  0.218750  0.437500     24.000000
  0.281250  0.218750  0.437500     24.000000
  0.312500  0.218750  0.437500     24.000000
  0.343750  0.218750  0.437500     24.000000
  0.375000  0.218750  0.437500     24.000000
  0.250000  0.250000  0.437500     12.000000
  0.281250  0.250000  0.437500     24.000000
  0.312500  0.250000  0.437500     24.000000
  0.343750  0.250000  0.437500     24.000000
  0.375000  0.250000  0.437500     12.000000
  0.281250  0.281250  0.437500     12.000000
  0.312500  0.281250  0.437500     24.000000
  0.343750  0.281250  0.437500     24.000000
  0.312500  0.312500  0.437500     12.000000
  0.343750  0.312500  0.437500     12.000000
  0.000000  0.000000  0.500000      1.000000
  0.031250  0.000000  0.500000      6.000000
  0.062500  0.000000  0.500000      6.000000
  0.093750  0.000000  0.500000      6.000000
  0.125000  0.000000  0.500000      6.000000
  0.156250  0.000000  0.500000      6.000000
  0.187500  0.000000  0.500000      6.000000
  0.218750  0.000000  0.500000      6.000000
  0.250000  0.000000  0.500000      6.000000
  0.281250  0.000000  0.500000      6.000000
  0.312500  0.000000  0.500000      6.000000
  0.343750  0.000000  0.500000      6.000000
  0.375000  0.000000  0.500000      6.000000
  0.406250  0.000000  0.500000      6.000000
  0.437500  0.000000  0.500000      6.000000
  0.468750  0.000000  0.500000      6.000000
  0.500000  0.000000  0.500000      3.000000
  0.031250  0.031250  0.500000      6.000000
  0.062500  0.031250  0.500000     12.000000
  0.093750  0.031250  0.500000     12.000000
  0.125000  0.031250  0.500000     12.000000
  0.156250  0.031250  0.500000     12.000000
  0.187500  0.031250  0.500000     12.000000
  0.218750  0.031250  0.500000     12.000000
  0.250000  0.031250  0.500000     12.000000
  0.281250  0.031250  0.500000     12.000000
  0.312500  0.031250  0.500000     12.000000
  0.343750  0.031250  0.500000     12.000000
  0.375000  0.031250  0.500000     12.000000
  0.406250  0.031250  0.500000     12.000000
  0.437500  0.031250  0.500000     12.000000
  0.468750  0.031250  0.500000     12.000000
  0.062500  0.062500  0.500000      6.000000
  0.093750  0.062500  0.500000     12.000000
  0.125000  0.062500  0.500000     12.000000
  0.156250  0.062500  0.500000     12.000000
  0.187500  0.062500  0.500000     12.000000
  0.218750  0.062500  0.500000     12.000000
  0.250000  0.062500  0.500000     12.000000
  0.281250  0.062500  0.500000     12.000000
  0.312500  0.062500  0.500000     12.000000
  0.343750  0.062500  0.500000     12.000000
  0.375000  0.062500  0.500000     12.000000
  0.406250  0.062500  0.500000     12.000000
  0.437500  0.062500  0.500000     12.000000
  0.468750  0.062500  0.500000      6.000000
  0.093750  0.093750  0.500000      6.000000
  0.125000  0.093750  0.500000     12.000000
  0.156250  0.093750  0.500000     12.000000
  0.187500  0.093750  0.500000     12.000000
  0.218750  0.093750  0.500000     12.000000
  0.250000  0.093750  0.500000     12.000000
  0.281250  0.093750  0.500000     12.000000
  0.312500  0.093750  0.500000     12.000000
  0.343750  0.093750  0.500000     12.000000
  0.375000  0.093750  0.500000     12.000000
  0.406250  0.093750  0.500000     12.000000
  0.437500  0.093750  0.500000     12.000000
  0.125000  0.125000  0.500000      6.000000
  0.156250  0.125000  0.500000     12.000000
  0.187500  0.125000  0.500000     12.000000
  0.218750  0.125000  0.500000     12.000000
  0.250000  0.125000  0.500000     12.000000
  0.281250  0.125000  0.500000     12.000000
  0.312500  0.125000  0.500000     12.000000
  0.343750  0.125000  0.500000     12.000000
  0.375000  0.125000  0.500000     12.000000
  0.406250  0.125000  0.500000     12.000000
  0.437500  0.125000  0.500000      6.000000
  0.156250  0.156250  0.500000      6.000000
  0.187500  0.156250  0.500000     12.000000
  0.218750  0.156250  0.500000     12.000000
  0.250000  0.156250  0.500000     12.000000
  0.281250  0.156250  0.500000     12.000000
  0.312500  0.156250  0.500000     12.000000
  0.343750  0.156250  0.500000     12.000000
  0.375000  0.156250  0.500000     12.000000
  0.406250  0.156250  0.500000     12.000000
  0.187500  0.187500  0.500000      6.000000
  0.218750  0.187500  0.500000     12.000000
  0.250000  0.187500  0.500000     12.000000
  0.281250  0.187500  0.500000     12.000000
  0.312500  0.187500  0.500000     12.000000
  0.343750  0.187500  0.500000     12.000000
  0.375000  0.187500  0.500000     12.000000
  0.406250  0.187500  0.500000      6.000000
  0.218750  0.218750  0.500000      6.000000
  0.250000  0.218750  0.500000     12.000000
  0.281250  0.218750  0.500000     12.000000
  0.312500  0.218750  0.500000     12.000000
  0.343750  0.218750  0.500000     12.000000
  0.375000  0.218750  0.500000     12.000000
  0.250000  0.250000  0.500000      6.000000
  0.281250  0.250000  0.500000     12.000000
  0.312500  0.250000  0.500000     12.000000
  0.343750  0.250000  0.500000     12.000000
  0.375000  0.250000  0.500000      6.000000
  0.281250  0.281250  0.500000      6.000000
  0.312500  0.281250  0.500000     12.000000
  0.343750  0.281250  0.500000     12.000000
  0.312500  0.312500  0.500000      6.000000
  0.343750  0.312500  0.500000      6.000000
 
 Following cartesian coordinates:
            Coordinates               Weight
  0.000000  0.000000  0.000000      1.000000
  0.012438 -0.007181  0.000000      6.000000
  0.024876 -0.014362  0.000000      6.000000
  0.037314 -0.021543  0.000000      6.000000
  0.049752 -0.028724  0.000000      6.000000
  0.062190 -0.035905  0.000000      6.000000
  0.074628 -0.043086  0.000000      6.000000
  0.087066 -0.050267  0.000000      6.000000
  0.099503 -0.057448  0.000000      6.000000
  0.111941 -0.064629  0.000000      6.000000
  0.124379 -0.071810  0.000000      6.000000
  0.136817 -0.078992  0.000000      6.000000
  0.149255 -0.086173  0.000000      6.000000
  0.161693 -0.093354  0.000000      6.000000
  0.174131 -0.100535  0.000000      6.000000
  0.186569 -0.107716  0.000000      6.000000
  0.199007 -0.114897  0.000000      3.000000
  0.024876  0.000000  0.000000      6.000000
  0.037314 -0.007181  0.000000     12.000000
  0.049752 -0.014362  0.000000     12.000000
  0.062190 -0.021543  0.000000     12.000000
  0.074628 -0.028724  0.000000     12.000000
  0.087066 -0.035905  0.000000     12.000000
  0.099503 -0.043086  0.000000     12.000000
  0.111941 -0.050267  0.000000     12.000000
  0.124379 -0.057448  0.000000     12.000000
  0.136817 -0.064629  0.000000     12.000000
  0.149255 -0.071810  0.000000     12.000000
  0.161693 -0.078992  0.000000     12.000000
  0.174131 -0.086173  0.000000     12.000000
  0.186569 -0.093354  0.000000     12.000000
  0.199007 -0.100535  0.000000     12.000000
  0.049752  0.000000  0.000000      6.000000
  0.062190 -0.007181  0.000000     12.000000
  0.074628 -0.014362  0.000000     12.000000
  0.087066 -0.021543  0.000000     12.000000
  0.099503 -0.028724  0.000000     12.000000
  0.111941 -0.035905  0.000000     12.000000
  0.124379 -0.043086  0.000000     12.000000
  0.136817 -0.050267  0.000000     12.000000
  0.149255 -0.057448  0.000000     12.000000
  0.161693 -0.064629  0.000000     12.000000
  0.174131 -0.071810  0.000000     12.000000
  0.186569 -0.078992  0.000000     12.000000
  0.199007 -0.086173  0.000000     12.000000
  0.211445 -0.093354  0.000000      6.000000
  0.074628  0.000000  0.000000      6.000000
  0.087066 -0.007181  0.000000     12.000000
  0.099503 -0.014362  0.000000     12.000000
  0.111941 -0.021543  0.000000     12.000000
  0.124379 -0.028724  0.000000     12.000000
  0.136817 -0.035905  0.000000     12.000000
  0.149255 -0.043086  0.000000     12.000000
  0.161693 -0.050267  0.000000     12.000000
  0.174131 -0.057448  0.000000     12.000000
  0.186569 -0.064629  0.000000     12.000000
  0.199007 -0.071810  0.000000     12.000000
  0.211445 -0.078992  0.000000     12.000000
  0.099503  0.000000  0.000000      6.000000
  0.111941 -0.007181  0.000000     12.000000
  0.124379 -0.014362  0.000000     12.000000
  0.136817 -0.021543  0.000000     12.000000
  0.149255 -0.028724  0.000000     12.000000
  0.161693 -0.035905  0.000000     12.000000
  0.174131 -0.043086  0.000000     12.000000
  0.186569 -0.050267  0.000000     12.000000
  0.199007 -0.057448  0.000000     12.000000
  0.211445 -0.064629  0.000000     12.000000
  0.223883 -0.071810  0.000000      6.000000
  0.124379  0.000000  0.000000      6.000000
  0.136817 -0.007181  0.000000     12.000000
  0.149255 -0.014362  0.000000     12.000000
  0.161693 -0.021543  0.000000     12.000000
  0.174131 -0.028724  0.000000     12.000000
  0.186569 -0.035905  0.000000     12.000000
  0.199007 -0.043086  0.000000     12.000000
  0.211445 -0.050267  0.000000     12.000000
  0.223883 -0.057448  0.000000     12.000000
  0.149255  0.000000  0.000000      6.000000
  0.161693 -0.007181  0.000000     12.000000
  0.174131 -0.014362  0.000000     12.000000
  0.186569 -0.021543  0.000000     12.000000
  0.199007 -0.028724  0.000000     12.000000
  0.211445 -0.035905  0.000000     12.000000
  0.223883 -0.043086  0.000000     12.000000
  0.236321 -0.050267  0.000000      6.000000
  0.174131  0.000000  0.000000      6.000000
  0.186569 -0.007181  0.000000     12.000000
  0.199007 -0.014362  0.000000     12.000000
  0.211445 -0.021543  0.000000     12.000000
  0.223883 -0.028724  0.000000     12.000000
  0.236321 -0.035905  0.000000     12.000000
  0.199007  0.000000  0.000000      6.000000
  0.211445 -0.007181  0.000000     12.000000
  0.223883 -0.014362  0.000000     12.000000
  0.236321 -0.021543  0.000000     12.000000
  0.248759 -0.028724  0.000000      6.000000
  0.223883  0.000000  0.000000      6.000000
  0.236321 -0.007181  0.000000     12.000000
  0.248759 -0.014362  0.000000     12.000000
  0.248759  0.000000  0.000000      6.000000
  0.261197 -0.007181  0.000000      6.000000
  0.000000  0.000000  0.008304      2.000000
  0.012438 -0.007181  0.008304     12.000000
  0.024876 -0.014362  0.008304     12.000000
  0.037314 -0.021543  0.008304     12.000000
  0.049752 -0.028724  0.008304     12.000000
  0.062190 -0.035905  0.008304     12.000000
  0.074628 -0.043086  0.008304     12.000000
  0.087066 -0.050267  0.008304     12.000000
  0.099503 -0.057448  0.008304     12.000000
  0.111941 -0.064629  0.008304     12.000000
  0.124379 -0.071810  0.008304     12.000000
  0.136817 -0.078992  0.008304     12.000000
  0.149255 -0.086173  0.008304     12.000000
  0.161693 -0.093354  0.008304     12.000000
  0.174131 -0.100535  0.008304     12.000000
  0.186569 -0.107716  0.008304     12.000000
  0.199007 -0.114897  0.008304      6.000000
  0.024876  0.000000  0.008304     12.000000
  0.037314 -0.007181  0.008304     24.000000
  0.049752 -0.014362  0.008304     24.000000
  0.062190 -0.021543  0.008304     24.000000
  0.074628 -0.028724  0.008304     24.000000
  0.087066 -0.035905  0.008304     24.000000
  0.099503 -0.043086  0.008304     24.000000
  0.111941 -0.050267  0.008304     24.000000
  0.124379 -0.057448  0.008304     24.000000
  0.136817 -0.064629  0.008304     24.000000
  0.149255 -0.071810  0.008304     24.000000
  0.161693 -0.078992  0.008304     24.000000
  0.174131 -0.086173  0.008304     24.000000
  0.186569 -0.093354  0.008304     24.000000
  0.199007 -0.100535  0.008304     24.000000
  0.049752  0.000000  0.008304     12.000000
  0.062190 -0.007181  0.008304     24.000000
  0.074628 -0.014362  0.008304     24.000000
  0.087066 -0.021543  0.008304     24.000000
  0.099503 -0.028724  0.008304     24.000000
  0.111941 -0.035905  0.008304     24.000000
  0.124379 -0.043086  0.008304     24.000000
  0.136817 -0.050267  0.008304     24.000000
  0.149255 -0.057448  0.008304     24.000000
  0.161693 -0.064629  0.008304     24.000000
  0.174131 -0.071810  0.008304     24.000000
  0.186569 -0.078992  0.008304     24.000000
  0.199007 -0.086173  0.008304     24.000000
  0.211445 -0.093354  0.008304     12.000000
  0.074628  0.000000  0.008304     12.000000
  0.087066 -0.007181  0.008304     24.000000
  0.099503 -0.014362  0.008304     24.000000
  0.111941 -0.021543  0.008304     24.000000
  0.124379 -0.028724  0.008304     24.000000
  0.136817 -0.035905  0.008304     24.000000
  0.149255 -0.043086  0.008304     24.000000
  0.161693 -0.050267  0.008304     24.000000
  0.174131 -0.057448  0.008304     24.000000
  0.186569 -0.064629  0.008304     24.000000
  0.199007 -0.071810  0.008304     24.000000
  0.211445 -0.078992  0.008304     24.000000
  0.099503  0.000000  0.008304     12.000000
  0.111941 -0.007181  0.008304     24.000000
  0.124379 -0.014362  0.008304     24.000000
  0.136817 -0.021543  0.008304     24.000000
  0.149255 -0.028724  0.008304     24.000000
  0.161693 -0.035905  0.008304     24.000000
  0.174131 -0.043086  0.008304     24.000000
  0.186569 -0.050267  0.008304     24.000000
  0.199007 -0.057448  0.008304     24.000000
  0.211445 -0.064629  0.008304     24.000000
  0.223883 -0.071810  0.008304     12.000000
  0.124379  0.000000  0.008304     12.000000
  0.136817 -0.007181  0.008304     24.000000
  0.149255 -0.014362  0.008304     24.000000
  0.161693 -0.021543  0.008304     24.000000
  0.174131 -0.028724  0.008304     24.000000
  0.186569 -0.035905  0.008304     24.000000
  0.199007 -0.043086  0.008304     24.000000
  0.211445 -0.050267  0.008304     24.000000
  0.223883 -0.057448  0.008304     24.000000
  0.149255  0.000000  0.008304     12.000000
  0.161693 -0.007181  0.008304     24.000000
  0.174131 -0.014362  0.008304     24.000000
  0.186569 -0.021543  0.008304     24.000000
  0.199007 -0.028724  0.008304     24.000000
  0.211445 -0.035905  0.008304     24.000000
  0.223883 -0.043086  0.008304     24.000000
  0.236321 -0.050267  0.008304     12.000000
  0.174131  0.000000  0.008304     12.000000
  0.186569 -0.007181  0.008304     24.000000
  0.199007 -0.014362  0.008304     24.000000
  0.211445 -0.021543  0.008304     24.000000
  0.223883 -0.028724  0.008304     24.000000
  0.236321 -0.035905  0.008304     24.000000
  0.199007  0.000000  0.008304     12.000000
  0.211445 -0.007181  0.008304     24.000000
  0.223883 -0.014362  0.008304     24.000000
  0.236321 -0.021543  0.008304     24.000000
  0.248759 -0.028724  0.008304     12.000000
  0.223883  0.000000  0.008304     12.000000
  0.236321 -0.007181  0.008304     24.000000
  0.248759 -0.014362  0.008304     24.000000
  0.248759  0.000000  0.008304     12.000000
  0.261197 -0.007181  0.008304     12.000000
  0.000000  0.000000  0.016608      2.000000
  0.012438 -0.007181  0.016608     12.000000
  0.024876 -0.014362  0.016608     12.000000
  0.037314 -0.021543  0.016608     12.000000
  0.049752 -0.028724  0.016608     12.000000
  0.062190 -0.035905  0.016608     12.000000
  0.074628 -0.043086  0.016608     12.000000
  0.087066 -0.050267  0.016608     12.000000
  0.099503 -0.057448  0.016608     12.000000
  0.111941 -0.064629  0.016608     12.000000
  0.124379 -0.071810  0.016608     12.000000
  0.136817 -0.078992  0.016608     12.000000
  0.149255 -0.086173  0.016608     12.000000
  0.161693 -0.093354  0.016608     12.000000
  0.174131 -0.100535  0.016608     12.000000
  0.186569 -0.107716  0.016608     12.000000
  0.199007 -0.114897  0.016608      6.000000
  0.024876  0.000000  0.016608     12.000000
  0.037314 -0.007181  0.016608     24.000000
  0.049752 -0.014362  0.016608     24.000000
  0.062190 -0.021543  0.016608     24.000000
  0.074628 -0.028724  0.016608     24.000000
  0.087066 -0.035905  0.016608     24.000000
  0.099503 -0.043086  0.016608     24.000000
  0.111941 -0.050267  0.016608     24.000000
  0.124379 -0.057448  0.016608     24.000000
  0.136817 -0.064629  0.016608     24.000000
  0.149255 -0.071810  0.016608     24.000000
  0.161693 -0.078992  0.016608     24.000000
  0.174131 -0.086173  0.016608     24.000000
  0.186569 -0.093354  0.016608     24.000000
  0.199007 -0.100535  0.016608     24.000000
  0.049752  0.000000  0.016608     12.000000
  0.062190 -0.007181  0.016608     24.000000
  0.074628 -0.014362  0.016608     24.000000
  0.087066 -0.021543  0.016608     24.000000
  0.099503 -0.028724  0.016608     24.000000
  0.111941 -0.035905  0.016608     24.000000
  0.124379 -0.043086  0.016608     24.000000
  0.136817 -0.050267  0.016608     24.000000
  0.149255 -0.057448  0.016608     24.000000
  0.161693 -0.064629  0.016608     24.000000
  0.174131 -0.071810  0.016608     24.000000
  0.186569 -0.078992  0.016608     24.000000
  0.199007 -0.086173  0.016608     24.000000
  0.211445 -0.093354  0.016608     12.000000
  0.074628  0.000000  0.016608     12.000000
  0.087066 -0.007181  0.016608     24.000000
  0.099503 -0.014362  0.016608     24.000000
  0.111941 -0.021543  0.016608     24.000000
  0.124379 -0.028724  0.016608     24.000000
  0.136817 -0.035905  0.016608     24.000000
  0.149255 -0.043086  0.016608     24.000000
  0.161693 -0.050267  0.016608     24.000000
  0.174131 -0.057448  0.016608     24.000000
  0.186569 -0.064629  0.016608     24.000000
  0.199007 -0.071810  0.016608     24.000000
  0.211445 -0.078992  0.016608     24.000000
  0.099503  0.000000  0.016608     12.000000
  0.111941 -0.007181  0.016608     24.000000
  0.124379 -0.014362  0.016608     24.000000
  0.136817 -0.021543  0.016608     24.000000
  0.149255 -0.028724  0.016608     24.000000
  0.161693 -0.035905  0.016608     24.000000
  0.174131 -0.043086  0.016608     24.000000
  0.186569 -0.050267  0.016608     24.000000
  0.199007 -0.057448  0.016608     24.000000
  0.211445 -0.064629  0.016608     24.000000
  0.223883 -0.071810  0.016608     12.000000
  0.124379  0.000000  0.016608     12.000000
  0.136817 -0.007181  0.016608     24.000000
  0.149255 -0.014362  0.016608     24.000000
  0.161693 -0.021543  0.016608     24.000000
  0.174131 -0.028724  0.016608     24.000000
  0.186569 -0.035905  0.016608     24.000000
  0.199007 -0.043086  0.016608     24.000000
  0.211445 -0.050267  0.016608     24.000000
  0.223883 -0.057448  0.016608     24.000000
  0.149255  0.000000  0.016608     12.000000
  0.161693 -0.007181  0.016608     24.000000
  0.174131 -0.014362  0.016608     24.000000
  0.186569 -0.021543  0.016608     24.000000
  0.199007 -0.028724  0.016608     24.000000
  0.211445 -0.035905  0.016608     24.000000
  0.223883 -0.043086  0.016608     24.000000
  0.236321 -0.050267  0.016608     12.000000
  0.174131  0.000000  0.016608     12.000000
  0.186569 -0.007181  0.016608     24.000000
  0.199007 -0.014362  0.016608     24.000000
  0.211445 -0.021543  0.016608     24.000000
  0.223883 -0.028724  0.016608     24.000000
  0.236321 -0.035905  0.016608     24.000000
  0.199007  0.000000  0.016608     12.000000
  0.211445 -0.007181  0.016608     24.000000
  0.223883 -0.014362  0.016608     24.000000
  0.236321 -0.021543  0.016608     24.000000
  0.248759 -0.028724  0.016608     12.000000
  0.223883  0.000000  0.016608     12.000000
  0.236321 -0.007181  0.016608     24.000000
  0.248759 -0.014362  0.016608     24.000000
  0.248759  0.000000  0.016608     12.000000
  0.261197 -0.007181  0.016608     12.000000
  0.000000  0.000000  0.024912      2.000000
  0.012438 -0.007181  0.024912     12.000000
  0.024876 -0.014362  0.024912     12.000000
  0.037314 -0.021543  0.024912     12.000000
  0.049752 -0.028724  0.024912     12.000000
  0.062190 -0.035905  0.024912     12.000000
  0.074628 -0.043086  0.024912     12.000000
  0.087066 -0.050267  0.024912     12.000000
  0.099503 -0.057448  0.024912     12.000000
  0.111941 -0.064629  0.024912     12.000000
  0.124379 -0.071810  0.024912     12.000000
  0.136817 -0.078992  0.024912     12.000000
  0.149255 -0.086173  0.024912     12.000000
  0.161693 -0.093354  0.024912     12.000000
  0.174131 -0.100535  0.024912     12.000000
  0.186569 -0.107716  0.024912     12.000000
  0.199007 -0.114897  0.024912      6.000000
  0.024876  0.000000  0.024912     12.000000
  0.037314 -0.007181  0.024912     24.000000
  0.049752 -0.014362  0.024912     24.000000
  0.062190 -0.021543  0.024912     24.000000
  0.074628 -0.028724  0.024912     24.000000
  0.087066 -0.035905  0.024912     24.000000
  0.099503 -0.043086  0.024912     24.000000
  0.111941 -0.050267  0.024912     24.000000
  0.124379 -0.057448  0.024912     24.000000
  0.136817 -0.064629  0.024912     24.000000
  0.149255 -0.071810  0.024912     24.000000
  0.161693 -0.078992  0.024912     24.000000
  0.174131 -0.086173  0.024912     24.000000
  0.186569 -0.093354  0.024912     24.000000
  0.199007 -0.100535  0.024912     24.000000
  0.049752  0.000000  0.024912     12.000000
  0.062190 -0.007181  0.024912     24.000000
  0.074628 -0.014362  0.024912     24.000000
  0.087066 -0.021543  0.024912     24.000000
  0.099503 -0.028724  0.024912     24.000000
  0.111941 -0.035905  0.024912     24.000000
  0.124379 -0.043086  0.024912     24.000000
  0.136817 -0.050267  0.024912     24.000000
  0.149255 -0.057448  0.024912     24.000000
  0.161693 -0.064629  0.024912     24.000000
  0.174131 -0.071810  0.024912     24.000000
  0.186569 -0.078992  0.024912     24.000000
  0.199007 -0.086173  0.024912     24.000000
  0.211445 -0.093354  0.024912     12.000000
  0.074628  0.000000  0.024912     12.000000
  0.087066 -0.007181  0.024912     24.000000
  0.099503 -0.014362  0.024912     24.000000
  0.111941 -0.021543  0.024912     24.000000
  0.124379 -0.028724  0.024912     24.000000
  0.136817 -0.035905  0.024912     24.000000
  0.149255 -0.043086  0.024912     24.000000
  0.161693 -0.050267  0.024912     24.000000
  0.174131 -0.057448  0.024912     24.000000
  0.186569 -0.064629  0.024912     24.000000
  0.199007 -0.071810  0.024912     24.000000
  0.211445 -0.078992  0.024912     24.000000
  0.099503  0.000000  0.024912     12.000000
  0.111941 -0.007181  0.024912     24.000000
  0.124379 -0.014362  0.024912     24.000000
  0.136817 -0.021543  0.024912     24.000000
  0.149255 -0.028724  0.024912     24.000000
  0.161693 -0.035905  0.024912     24.000000
  0.174131 -0.043086  0.024912     24.000000
  0.186569 -0.050267  0.024912     24.000000
  0.199007 -0.057448  0.024912     24.000000
  0.211445 -0.064629  0.024912     24.000000
  0.223883 -0.071810  0.024912     12.000000
  0.124379  0.000000  0.024912     12.000000
  0.136817 -0.007181  0.024912     24.000000
  0.149255 -0.014362  0.024912     24.000000
  0.161693 -0.021543  0.024912     24.000000
  0.174131 -0.028724  0.024912     24.000000
  0.186569 -0.035905  0.024912     24.000000
  0.199007 -0.043086  0.024912     24.000000
  0.211445 -0.050267  0.024912     24.000000
  0.223883 -0.057448  0.024912     24.000000
  0.149255  0.000000  0.024912     12.000000
  0.161693 -0.007181  0.024912     24.000000
  0.174131 -0.014362  0.024912     24.000000
  0.186569 -0.021543  0.024912     24.000000
  0.199007 -0.028724  0.024912     24.000000
  0.211445 -0.035905  0.024912     24.000000
  0.223883 -0.043086  0.024912     24.000000
  0.236321 -0.050267  0.024912     12.000000
  0.174131  0.000000  0.024912     12.000000
  0.186569 -0.007181  0.024912     24.000000
  0.199007 -0.014362  0.024912     24.000000
  0.211445 -0.021543  0.024912     24.000000
  0.223883 -0.028724  0.024912     24.000000
  0.236321 -0.035905  0.024912     24.000000
  0.199007  0.000000  0.024912     12.000000
  0.211445 -0.007181  0.024912     24.000000
  0.223883 -0.014362  0.024912     24.000000
  0.236321 -0.021543  0.024912     24.000000
  0.248759 -0.028724  0.024912     12.000000
  0.223883  0.000000  0.024912     12.000000
  0.236321 -0.007181  0.024912     24.000000
  0.248759 -0.014362  0.024912     24.000000
  0.248759  0.000000  0.024912     12.000000
  0.261197 -0.007181  0.024912     12.000000
  0.000000  0.000000  0.033216      2.000000
  0.012438 -0.007181  0.033216     12.000000
  0.024876 -0.014362  0.033216     12.000000
  0.037314 -0.021543  0.033216     12.000000
  0.049752 -0.028724  0.033216     12.000000
  0.062190 -0.035905  0.033216     12.000000
  0.074628 -0.043086  0.033216     12.000000
  0.087066 -0.050267  0.033216     12.000000
  0.099503 -0.057448  0.033216     12.000000
  0.111941 -0.064629  0.033216     12.000000
  0.124379 -0.071810  0.033216     12.000000
  0.136817 -0.078992  0.033216     12.000000
  0.149255 -0.086173  0.033216     12.000000
  0.161693 -0.093354  0.033216     12.000000
  0.174131 -0.100535  0.033216     12.000000
  0.186569 -0.107716  0.033216     12.000000
  0.199007 -0.114897  0.033216      6.000000
  0.024876  0.000000  0.033216     12.000000
  0.037314 -0.007181  0.033216     24.000000
  0.049752 -0.014362  0.033216     24.000000
  0.062190 -0.021543  0.033216     24.000000
  0.074628 -0.028724  0.033216     24.000000
  0.087066 -0.035905  0.033216     24.000000
  0.099503 -0.043086  0.033216     24.000000
  0.111941 -0.050267  0.033216     24.000000
  0.124379 -0.057448  0.033216     24.000000
  0.136817 -0.064629  0.033216     24.000000
  0.149255 -0.071810  0.033216     24.000000
  0.161693 -0.078992  0.033216     24.000000
  0.174131 -0.086173  0.033216     24.000000
  0.186569 -0.093354  0.033216     24.000000
  0.199007 -0.100535  0.033216     24.000000
  0.049752  0.000000  0.033216     12.000000
  0.062190 -0.007181  0.033216     24.000000
  0.074628 -0.014362  0.033216     24.000000
  0.087066 -0.021543  0.033216     24.000000
  0.099503 -0.028724  0.033216     24.000000
  0.111941 -0.035905  0.033216     24.000000
  0.124379 -0.043086  0.033216     24.000000
  0.136817 -0.050267  0.033216     24.000000
  0.149255 -0.057448  0.033216     24.000000
  0.161693 -0.064629  0.033216     24.000000
  0.174131 -0.071810  0.033216     24.000000
  0.186569 -0.078992  0.033216     24.000000
  0.199007 -0.086173  0.033216     24.000000
  0.211445 -0.093354  0.033216     12.000000
  0.074628  0.000000  0.033216     12.000000
  0.087066 -0.007181  0.033216     24.000000
  0.099503 -0.014362  0.033216     24.000000
  0.111941 -0.021543  0.033216     24.000000
  0.124379 -0.028724  0.033216     24.000000
  0.136817 -0.035905  0.033216     24.000000
  0.149255 -0.043086  0.033216     24.000000
  0.161693 -0.050267  0.033216     24.000000
  0.174131 -0.057448  0.033216     24.000000
  0.186569 -0.064629  0.033216     24.000000
  0.199007 -0.071810  0.033216     24.000000
  0.211445 -0.078992  0.033216     24.000000
  0.099503  0.000000  0.033216     12.000000
  0.111941 -0.007181  0.033216     24.000000
  0.124379 -0.014362  0.033216     24.000000
  0.136817 -0.021543  0.033216     24.000000
  0.149255 -0.028724  0.033216     24.000000
  0.161693 -0.035905  0.033216     24.000000
  0.174131 -0.043086  0.033216     24.000000
  0.186569 -0.050267  0.033216     24.000000
  0.199007 -0.057448  0.033216     24.000000
  0.211445 -0.064629  0.033216     24.000000
  0.223883 -0.071810  0.033216     12.000000
  0.124379  0.000000  0.033216     12.000000
  0.136817 -0.007181  0.033216     24.000000
  0.149255 -0.014362  0.033216     24.000000
  0.161693 -0.021543  0.033216     24.000000
  0.174131 -0.028724  0.033216     24.000000
  0.186569 -0.035905  0.033216     24.000000
  0.199007 -0.043086  0.033216     24.000000
  0.211445 -0.050267  0.033216     24.000000
  0.223883 -0.057448  0.033216     24.000000
  0.149255  0.000000  0.033216     12.000000
  0.161693 -0.007181  0.033216     24.000000
  0.174131 -0.014362  0.033216     24.000000
  0.186569 -0.021543  0.033216     24.000000
  0.199007 -0.028724  0.033216     24.000000
  0.211445 -0.035905  0.033216     24.000000
  0.223883 -0.043086  0.033216     24.000000
  0.236321 -0.050267  0.033216     12.000000
  0.174131  0.000000  0.033216     12.000000
  0.186569 -0.007181  0.033216     24.000000
  0.199007 -0.014362  0.033216     24.000000
  0.211445 -0.021543  0.033216     24.000000
  0.223883 -0.028724  0.033216     24.000000
  0.236321 -0.035905  0.033216     24.000000
  0.199007  0.000000  0.033216     12.000000
  0.211445 -0.007181  0.033216     24.000000
  0.223883 -0.014362  0.033216     24.000000
  0.236321 -0.021543  0.033216     24.000000
  0.248759 -0.028724  0.033216     12.000000
  0.223883  0.000000  0.033216     12.000000
  0.236321 -0.007181  0.033216     24.000000
  0.248759 -0.014362  0.033216     24.000000
  0.248759  0.000000  0.033216     12.000000
  0.261197 -0.007181  0.033216     12.000000
  0.000000  0.000000  0.041520      2.000000
  0.012438 -0.007181  0.041520     12.000000
  0.024876 -0.014362  0.041520     12.000000
  0.037314 -0.021543  0.041520     12.000000
  0.049752 -0.028724  0.041520     12.000000
  0.062190 -0.035905  0.041520     12.000000
  0.074628 -0.043086  0.041520     12.000000
  0.087066 -0.050267  0.041520     12.000000
  0.099503 -0.057448  0.041520     12.000000
  0.111941 -0.064629  0.041520     12.000000
  0.124379 -0.071810  0.041520     12.000000
  0.136817 -0.078992  0.041520     12.000000
  0.149255 -0.086173  0.041520     12.000000
  0.161693 -0.093354  0.041520     12.000000
  0.174131 -0.100535  0.041520     12.000000
  0.186569 -0.107716  0.041520     12.000000
  0.199007 -0.114897  0.041520      6.000000
  0.024876  0.000000  0.041520     12.000000
  0.037314 -0.007181  0.041520     24.000000
  0.049752 -0.014362  0.041520     24.000000
  0.062190 -0.021543  0.041520     24.000000
  0.074628 -0.028724  0.041520     24.000000
  0.087066 -0.035905  0.041520     24.000000
  0.099503 -0.043086  0.041520     24.000000
  0.111941 -0.050267  0.041520     24.000000
  0.124379 -0.057448  0.041520     24.000000
  0.136817 -0.064629  0.041520     24.000000
  0.149255 -0.071810  0.041520     24.000000
  0.161693 -0.078992  0.041520     24.000000
  0.174131 -0.086173  0.041520     24.000000
  0.186569 -0.093354  0.041520     24.000000
[...]
      9       7.7832      0.00000
     10       7.7977      0.00000
     11      11.9142      0.00000
     12      11.9362      0.00000
     13      14.5912      0.00000
     14      14.6680      0.00000
     15      15.7735      0.00000
     16      16.2812      0.00000
     17      17.5542      0.00000
     18      18.0215      0.00000
     19      21.4005      0.00000
     20      22.3793      0.00000

 k-point   904 :       0.2500    0.2188    0.5000
  band No.  band energies     occupation 
      1     -13.6425      2.00000
      2     -13.6111      2.00000
      3      -6.0301      2.00000
      4      -6.0004      2.00000
      5      -4.2024      2.00000
      6      -4.1722      2.00000
      7      -0.2173      2.00000
      8      -0.1868      2.00000
      9       7.3429      0.00000
     10       7.3608      0.00000
     11      12.2608      0.00000
     12      12.3186      0.00000
     13      14.8086      0.00000
     14      14.8952      0.00000
     15      15.6921      0.00000
     16      16.5231      0.00000
     17      17.1815      0.00000
     18      17.9581      0.00000
     19      21.2840      0.00000
     20      22.2991      0.00000

 k-point   905 :       0.2812    0.2188    0.5000
  band No.  band energies     occupation 
      1     -13.3848      2.00000
      2     -13.3532      2.00000
      3      -6.3712      2.00000
      4      -6.3416      2.00000
      5      -4.4687      2.00000
      6      -4.4385      2.00000
      7       0.1683      2.00000
      8       0.1995      2.00000
      9       6.9126      0.00000
     10       6.9323      0.00000
     11      12.5849      0.00000
     12      12.6964      0.00000
     13      14.8793      0.00000
     14      14.8852      0.00000
     15      15.6779      0.00000
     16      16.6061      0.00000
     17      17.2386      0.00000
     18      18.1730      0.00000
     19      20.9249      0.00000
     20      21.8764      0.00000

 k-point   906 :       0.3125    0.2188    0.5000
  band No.  band energies     occupation 
      1     -13.1614      2.00000
      2     -13.1296      2.00000
      3      -6.6673      2.00000
      4      -6.6378      2.00000
      5      -4.6654      2.00000
      6      -4.6352      2.00000
      7       0.5140      2.00000
      8       0.5460      2.00000
      9       6.5273      0.00000
     10       6.5480      0.00000
     11      12.8512      0.00000
     12      13.0380      0.00000
     13      14.7420      0.00000
     14      14.8693      0.00000
     15      15.6994      0.00000
     16      16.5657      0.00000
     17      17.5476      0.00000
     18      18.5454      0.00000
     19      20.5853      0.00000
     20      21.4838      0.00000

 k-point   907 :       0.3438    0.2188    0.5000
  band No.  band energies     occupation 
      1     -12.9939      2.00000
      2     -12.9620      2.00000
      3      -6.8888      2.00000
      4      -6.8595      2.00000
      5      -4.7941      2.00000
      6      -4.7639      2.00000
      7       0.7828      2.00000
      8       0.8154      2.00000
      9       6.2293      0.00000
     10       6.2501      0.00000
     11      13.0337      0.00000
     12      13.3085      0.00000
     13      14.5828      0.00000
     14      14.8335      0.00000
     15      15.7305      0.00000
     16      16.6214      0.00000
     17      17.7176      0.00000
     18      18.8909      0.00000
     19      20.4240      0.00000
     20      21.2539      0.00000

 k-point   908 :       0.3750    0.2188    0.5000
  band No.  band energies     occupation 
      1     -12.9035      2.00000
      2     -12.8715      2.00000
      3      -7.0082      2.00000
      4      -6.9790      2.00000
      5      -4.8576      2.00000
      6      -4.8274      2.00000
      7       0.9325      2.00000
      8       0.9656      2.00000
      9       6.0640      0.00000
     10       6.0848      0.00000
     11      13.1239      0.00000
     12      13.4660      0.00000
     13      14.4782      0.00000
     14      14.8074      0.00000
     15      15.7547      0.00000
     16      16.7173      0.00000
     17      17.7190      0.00000
     18      19.0735      0.00000
     19      20.4211      0.00000
     20      21.2179      0.00000

 k-point   909 :       0.2500    0.2500    0.5000
  band No.  band energies     occupation 
      1     -13.3892      2.00000
      2     -13.3576      2.00000
      3      -6.2845      2.00000
      4      -6.2549      2.00000
      5      -4.5712      2.00000
      6      -4.5410      2.00000
      7       0.1608      2.00000
      8       0.1920      2.00000
      9       6.9523      0.00000
     10       6.9723      0.00000
     11      12.5853      0.00000
     12      12.7053      0.00000
     13      15.1561      0.00000
     14      15.2189      0.00000
     15      15.4617      0.00000
     16      16.4246      0.00000
     17      17.1164      0.00000
     18      17.9859      0.00000
     19      20.9317      0.00000
     20      22.0920      0.00000

 k-point   910 :       0.2813    0.2500    0.5000
  band No.  band energies     occupation 
      1     -13.1609      2.00000
      2     -13.1291      2.00000
      3      -6.5130      2.00000
      4      -6.4835      2.00000
      5      -4.8691      2.00000
      6      -4.8390      2.00000
      7       0.5123      2.00000
      8       0.5442      2.00000
      9       6.5898      0.00000
     10       6.6108      0.00000
     11      12.8391      0.00000
     12      13.0495      0.00000
     13      14.9801      0.00000
     14      15.3157      0.00000
     15      15.7143      0.00000
     16      16.3514      0.00000
     17      17.3791      0.00000
     18      18.2371      0.00000
     19      20.4961      0.00000
     20      21.7368      0.00000

 k-point   911 :       0.3125    0.2500    0.5000
  band No.  band energies     occupation 
      1     -12.9763      2.00000
      2     -12.9445      2.00000
      3      -6.7004      2.00000
      4      -6.6711      2.00000
      5      -5.0844      2.00000
      6      -5.0543      2.00000
      7       0.8071      2.00000
      8       0.8398      2.00000
      9       6.2867      0.00000
     10       6.3082      0.00000
     11      13.0009      0.00000
     12      13.3164      0.00000
     13      14.7503      0.00000
     14      15.3462      0.00000
     15      15.9184      0.00000
     16      16.4170      0.00000
     17      17.6933      0.00000
     18      18.6174      0.00000
     19      20.1462      0.00000
     20      21.3600      0.00000

 k-point   912 :       0.3438    0.2500    0.5000
  band No.  band energies     occupation 
      1     -12.8552      2.00000
      2     -12.8232      2.00000
      3      -6.8260      2.00000
      4      -6.7967      2.00000
      5      -5.2132      2.00000
      6      -5.1831      2.00000
      7       1.0077      2.00000
      8       1.0410      2.00000
      9       6.0807      0.00000
     10       6.1022      0.00000
     11      13.0795      0.00000
     12      13.4791      0.00000
     13      14.6131      0.00000
     14      15.3384      0.00000
     15      16.0381      0.00000
     16      16.5628      0.00000
     17      17.8495      0.00000
     18      18.9581      0.00000
     19      19.9982      0.00000
     20      21.1205      0.00000

 k-point   913 :       0.3750    0.2500    0.5000
  band No.  band energies     occupation 
      1     -12.8127      2.00000
      2     -12.7807      2.00000
      3      -6.8704      2.00000
      4      -6.8412      2.00000
      5      -5.2559      2.00000
      6      -5.2258      2.00000
      7       1.0795      2.00000
      8       1.1130      2.00000
      9       6.0070      0.00000
     10       6.0285      0.00000
     11      13.1012      0.00000
     12      13.5320      0.00000
     13      14.5695      0.00000
     14      15.3332      0.00000
     15      16.0792      0.00000
     16      16.6438      0.00000
     17      17.8657      0.00000
     18      19.0933      0.00000
     19      19.9871      0.00000
     20      21.0566      0.00000

 k-point   914 :       0.2812    0.2812    0.5000
  band No.  band energies     occupation 
      1     -12.9706      2.00000
      2     -12.9387      2.00000
      3      -6.6159      2.00000
      4      -6.5866      2.00000
      5      -5.2034      2.00000
      6      -5.1733      2.00000
      7       0.8148      2.00000
      8       0.8475      2.00000
      9       6.3083      0.00000
     10       6.3300      0.00000
     11      12.9786      0.00000
     12      13.3001      0.00000
     13      14.8154      0.00000
     14      15.6366      0.00000
     15      16.0284      0.00000
     16      16.2621      0.00000
     17      17.6682      0.00000
     18      18.4768      0.00000
     19      20.0564      0.00000
     20      21.5762      0.00000

 k-point   915 :       0.3125    0.2812    0.5000
  band No.  band energies     occupation 
      1     -12.8309      2.00000
      2     -12.7989      2.00000
      3      -6.6811      2.00000
      4      -6.6519      2.00000
      5      -5.4465      2.00000
      6      -5.4165      2.00000
      7       1.0453      2.00000
      8       1.0786      2.00000
      9       6.0946      0.00000
     10       6.1165      0.00000
     11      13.0257      0.00000
     12      13.4243      0.00000
     13      14.7189      0.00000
     14      15.7970      0.00000
     15      16.2800      0.00000
     16      16.3587      0.00000
     17      17.9542      0.00000
     18      18.8188      0.00000
     19      19.7356      0.00000
     20      21.2458      0.00000

 k-point   916 :       0.3438    0.2812    0.5000
  band No.  band energies     occupation 
      1     -12.7566      2.00000
      2     -12.7246      2.00000
      3      -6.7120      2.00000
      4      -6.6828      2.00000
      5      -5.5755      2.00000
      6      -5.5455      2.00000
      7       1.1715      2.00000
      8       1.2052      2.00000
      9       5.9775      0.00000
     10       5.9994      0.00000
     11      13.0311      0.00000
     12      13.4590      0.00000
     13      14.6959      0.00000
     14      15.8364      0.00000
     15      16.4129      0.00000
     16      16.5142      0.00000
     17      18.0716      0.00000
     18      19.0894      0.00000
     19      19.6292      0.00000
     20      21.0026      0.00000

 k-point   917 :       0.3125    0.3125    0.5000
  band No.  band energies     occupation 
      1     -12.7376      2.00000
      2     -12.7055      2.00000
      3      -6.6279      2.00000
      4      -6.5988      2.00000
      5      -5.7141      2.00000
      6      -5.6840      2.00000
      7       1.2028      2.00000
      8       1.2366      2.00000
      9       5.9686      0.00000
     10       5.9907      0.00000
     11      12.9993      0.00000
     12      13.4194      0.00000
     13      14.7452      0.00000
     14      16.1213      0.00000
     15      16.3812      0.00000
     16      16.5630      0.00000
     17      18.1671      0.00000
     18      19.0647      0.00000
     19      19.4827      0.00000
     20      21.0929      0.00000

 k-point   918 :       0.3438    0.3125    0.5000
  band No.  band energies     occupation 
      1     -12.7054      2.00000
      2     -12.6733      2.00000
      3      -6.5945      2.00000
      4      -6.5654      2.00000
      5      -5.8204      2.00000
      6      -5.7904      2.00000
      7       1.2582      2.00000
      8       1.2922      2.00000
      9       5.9244      0.00000
     10       5.9465      0.00000
     11      12.9833      0.00000
     12      13.4043      0.00000
     13      14.7647      0.00000
     14      16.1979      0.00000
     15      16.4540      0.00000
     16      16.6696      0.00000
     17      18.2182      0.00000
     18      19.1841      0.00000
     19      19.4319      0.00000
     20      20.9839      0.00000


--------------------------------------------------------------------------------------------------------


 soft charge-density along one line, spin component           1
         0         1         2         3         4         5         6         7         8         9
 total charge-density along one line
 
 pseudopotential strength for first ion, spin component:           1
  6.448   9.819  -0.000   0.000  -0.000  -0.000   0.000  -0.000
  9.819  14.945  -0.000   0.000  -0.000  -0.000   0.000  -0.000
 -0.000  -0.000  -2.179  -0.000  -0.000  -3.707  -0.000  -0.000
  0.000   0.000  -0.000  -2.177  -0.000  -0.000  -3.699  -0.000
 -0.000  -0.000  -0.000  -0.000  -2.179  -0.000  -0.000  -3.707
 -0.000  -0.000  -3.707  -0.000  -0.000  -6.106  -0.000  -0.000
  0.000   0.000  -0.000  -3.699  -0.000  -0.000  -6.087  -0.000
 -0.000  -0.000  -0.000  -0.000  -3.707  -0.000  -0.000  -6.106
 total augmentation occupancy for first ion, spin component:           1
  2.000   0.000   0.000   0.000   0.000   0.000   0.000   0.000
  0.000   0.000   0.000   0.000   0.000   0.000   0.000   0.000
  0.000   0.000   0.333   0.000   0.000   0.000   0.000   0.000
  0.000   0.000   0.000   0.333   0.000   0.000   0.000   0.000
  0.000   0.000   0.000   0.000   0.333   0.000   0.000   0.000
  0.000   0.000   0.000   0.000   0.000   0.000   0.000   0.000
  0.000   0.000   0.000   0.000   0.000   0.000   0.000   0.000
  0.000   0.000   0.000   0.000   0.000   0.000   0.000   0.000


------------------------ aborting loop because EDIFF is reached ----------------------------------------


 


 total charge     
 
# of ion       s       p       d       tot
------------------------------------------
    1        0.740   1.413   0.000   2.154
    2        0.740   1.413   0.000   2.153
    3        1.225   2.786   0.000   4.011
    4        1.225   2.786   0.000   4.011
--------------------------------------------------
tot          3.930   8.399   0.000  12.329
 
    CHARGE:  cpu time    0.0733: real time    0.0739
    FORLOC:  cpu time    0.0001: real time    0.0001
    FORNL :  cpu time    0.2269: real time    0.2287
    STRESS:  cpu time    2.4611: real time    2.4836
    FORCOR:  cpu time    0.0018: real time    0.0019
    FORHAR:  cpu time    0.0006: real time    0.0006
    OFIELD:  cpu time    0.0000: real time    0.0000

  FORCE on cell =-STRESS in cart. coord.  units (eV):
  Direction    XX          YY          ZZ          XY          YZ          ZX
  --------------------------------------------------------------------------------------
  Alpha Z    34.59384    34.59384    34.59384
  Ewald     121.29472   121.29472  -664.47690    -0.00000    -0.00000    -0.00000
  Hartree   223.91300   223.91300  -166.30969     0.00000    -0.00000     0.00000
  E(xc)     -63.11195   -63.11195   -64.94241    -0.00000    -0.00000     0.00000
  Local    -544.55878  -544.55804   600.44934     0.00000     0.00000    -0.00010
  n-local   -30.93524   -29.23666   -29.93956     0.08979    -0.00505     0.01817
  augment     2.16973     2.16960     2.52408     0.00000     0.00000    -0.00000
  Kinetic   258.81837   252.80031   288.18370     2.58382     0.05238    -0.17861
  Fock        0.00000     0.00000     0.00000     0.00000     0.00000     0.00000
  -------------------------------------------------------------------------------------
  Total       0.02425     0.02425     0.08240    -0.00000     0.00000    -0.00000
  in kB       0.94433     0.94433     3.20848    -0.00000     0.00000    -0.00000
  external pressure =        1.70 kB  Pullay stress =        0.00 kB


 VOLUME and BASIS-vectors are now :
 -----------------------------------------------------------------------------
  energy-cutoff  :      500.00
  volume of cell :       41.15
      direct lattice vectors                 reciprocal lattice vectors
     1.256237318 -2.175866861  0.000000000     0.398013968 -0.229793472  0.000000000
     1.256237318  2.175866861  0.000000000     0.398013968  0.229793472  0.000000000
     0.000000000  0.000000000  7.526459174     0.000000000  0.000000000  0.132864602

  length of vectors
     2.512474636  2.512474636  7.526459174     0.459586943  0.459586943  0.132864602


 FORCES acting on ions
    electron-ion (+dipol)            ewald-force                    non-local-force                 convergence-correction
 -----------------------------------------------------------------------------------------------
   -.133E-13 -.120E-04 0.411E-14   0.466E-14 -.651E-11 -.139E-13   -.278E-16 0.555E-16 0.000E+00   0.773E-14 0.297E-04 -.436E-12
   0.640E-13 -.158E-04 -.243E-12   0.347E-14 0.130E-10 0.139E-13   -.278E-16 0.222E-15 0.000E+00   -.521E-14 -.385E-04 0.133E-11
   0.743E-13 -.665E-06 -.817E-12   -.352E-14 0.651E-11 -.231E-13   -.694E-17 -.694E-17 0.000E+00   -.723E-13 -.308E-03 -.427E-12
   0.443E-13 -.278E-05 -.359E-11   -.271E-14 -.130E-10 0.231E-13   -.694E-17 -.694E-17 0.000E+00   0.313E-13 0.338E-03 0.350E-11
 -----------------------------------------------------------------------------------------------
   0.169E-12 -.312E-04 -.464E-11   0.191E-14 0.202E-14 0.000E+00   -.694E-16 0.264E-15 0.000E+00   -.385E-13 0.208E-04 0.397E-11
 
 
 POSITION                                       TOTAL-FORCE (eV/Angst)
 -----------------------------------------------------------------------------------
      0.00000      0.00000      0.00000        -0.000000      0.000000      0.000000
      1.25624      0.72529      3.76323        -0.000000      0.000000      0.000000
      1.25624      0.72529      0.00000         0.000000     -0.000000      0.000000
      1.25624     -0.72529      3.76323        -0.000000      0.000000      0.000000
 -----------------------------------------------------------------------------------
    total drift:                                0.000000     -0.000010     -0.000000


--------------------------------------------------------------------------------------------------------



  FREE ENERGIE OF THE ION-ELECTRON SYSTEM (eV)
  ---------------------------------------------------
  free  energy   TOTEN  =       -35.19443763 eV

  energy  without entropy=      -35.19443763  energy(sigma->0) =      -35.19443763
 


--------------------------------------------------------------------------------------------------------


    POTLOK:  cpu time    0.0045: real time    0.0045


--------------------------------------------------------------------------------------------------------


 writing wavefunctions
     LOOP+:  cpu time   22.3692: real time   22.5469
    4ORBIT:  cpu time    0.0000: real time    0.0000
 


 total charge     
 
# of ion       s       p       d       tot
------------------------------------------
    1        0.740   1.413   0.000   2.154
    2        0.740   1.413   0.000   2.153
    3        1.225   2.786   0.000   4.011
    4        1.225   2.786   0.000   4.011
--------------------------------------------------
tot          3.930   8.399   0.000  12.329
 

 total amount of memory used by VASP MPI-rank0   174596. kBytes
=======================================================================

   base      :      30000. kBytes
   nonl-proj :     126973. kBytes
   fftplans  :        561. kBytes
   grid      :        600. kBytes
   one-center:         12. kBytes
   wavefun   :      16450. kBytes
 
  
  
 General timing and accounting informations for this job:
 ========================================================
  
                  Total CPU time used (sec):       26.456
                            User time (sec):       24.476
                          System time (sec):        1.980
                         Elapsed time (sec):       26.931
  
                   Maximum memory used (kb):      261492.
                   Average memory used (kb):           0.
  
                          Minor page faults:        15801
                          Major page faults:            8
                 Voluntary context switches:         3428
