 vasp.5.4.4.18Apr17-6-g9f103f2a35 (build May 10 2019 17:57:18) complex          
  
 executed on             LinuxIFC date 2024.07.15  18:29:33
 running on   20 total cores
 distrk:  each k-point on   20 cores,    1 groups
 distr:  one band on NCORES_PER_BAND=   1 cores,   20 groups


--------------------------------------------------------------------------------------------------------


 INCAR:
 POTCAR:    PAW_PBE B 06Sep2000                   
 POTCAR:    PAW_PBE N 08Apr2002                   

 ----------------------------------------------------------------------------- 
|                                                                             |
|           W    W    AA    RRRRR   N    N  II  N    N   GGGG   !!!           |
|           W    W   A  A   R    R  NN   N  II  NN   N  G    G  !!!           |
|           W    W  A    A  R    R  N N  N  II  N N  N  G       !!!           |
|           W WW W  AAAAAA  RRRRR   N  N N  II  N  N N  G  GGG   !            |
|           WW  WW  A    A  R   R   N   NN  II  N   NN  G    G                |
|           W    W  A    A  R    R  N    N  II  N    N   GGGG   !!!           |
|                                                                             |
|      For optimal performance we recommend to set                            |
|        NCORE= 4 - approx SQRT( number of cores)                             |
|      NCORE specifies how many cores store one orbital (NPAR=cpu/NCORE).     |
|      This setting can  greatly improve the performance of VASP for DFT.     |
|      The default,   NCORE=1            might be grossly inefficient         |
|      on modern multi-core architectures or massively parallel machines.     |
|      Do your own testing !!!!                                               |
|      Unfortunately you need to use the default for GW and RPA calculations. |
|      (for HF NCORE is supported but not extensively tested yet)             |
|                                                                             |
 ----------------------------------------------------------------------------- 

 POTCAR:    PAW_PBE B 06Sep2000                   
   SHA256 =  a32ced30f5ae56fd4d10b4325ff17eb3e4e38ee0f4288bc219fb012fddfa6e97 B/
   COPYR  = (c) Copyright 06Sep2000 Georg Kresse                                
   COPYR  = This file is part of the software VASP. Any use, copying, and all ot
   COPYR  = If you do not have a valid VASP license, you may not use, copy or di
   VRHFIN =B: s2p1                                                              
   LEXCH  = PE                                                                  
   EATOM  =    71.1703 eV,    5.2309 Ry                                         
                                                                                
   TITEL  = PAW_PBE B 06Sep2000                                                 
   LULTRA =        F    use ultrasoft PP ?                                      
   IUNSCR =        1    unscreen: 0-lin 1-nonlin 2-no                           
   RPACOR =    1.200    partial core radius                                     
   POMASS =   10.811; ZVAL   =    3.000    mass and valenz                      
   RCORE  =    1.700    outmost cutoff radius                                   
   RWIGS  =    1.710; RWIGS  =    0.905    wigner-seitz radius (au A)           
   ENMAX  =  318.614; ENMIN  =  238.960 eV                                      
   ICORE  =        2    local potential                                         
   LCOR   =        T    correct aug charges                                     
   LPAW   =        T    paw PP                                                  
   EAUG   =  535.514                                                            
   DEXC   =    0.000                                                            
   RMAX   =    1.732    core radius for proj-oper                               
   RAUG   =    1.300    factor for augmentation sphere                          
   RDEP   =    1.757    radius for radial grids                                 
   RDEPT  =    1.436    core radius for aug-charge                              
                                                                                
   Atomic configuration                                                         
    4 entries                                                                   
     n  l   j            E        occ.                                          
     1  0  0.50      -180.5896   2.0000                                         
     2  0  0.50        -9.4431   2.0000                                         
     2  1  0.50        -3.6068   1.0000                                         
     3  2  1.50        -4.0817   0.0000                                         
   Description                                                                  
     l       E           TYP  RCUT    TYP  RCUT                                 
     0     -9.4430752     23  1.500                                             
     0      0.8675899     23  1.500                                             
     1     -3.6067955     23  1.700                                             
     1      6.1086146     23  1.700                                             
     2     -4.0817478      7  1.700                                             
  local pseudopotential read in
  partial core-charges read in
  partial kinetic energy density read in
  atomic valenz-charges read in
  non local Contribution for L=           0  read in
    real space projection operators read in
  non local Contribution for L=           0  read in
    real space projection operators read in
  non local Contribution for L=           1  read in
    real space projection operators read in
  non local Contribution for L=           1  read in
    real space projection operators read in
    PAW grid and wavefunctions read in
 
   number of l-projection  operators is LMAX  =           4
   number of lm-projection operators is LMMAX =           8
 
 POTCAR:    PAW_PBE N 08Apr2002                   
   SHA256 =  e053789ff3a61a86a1b75d8a110fcc91f86041011e7b0817c7c99e4e8a6349d7 N/
   COPYR  = (c) Copyright 08Apr2002 Georg Kresse                                
   COPYR  = This file is part of the software VASP. Any use, copying, and all ot
   COPYR  = If you do not have a valid VASP license, you may not use, copy or di
   VRHFIN =N: s2p3                                                              
   LEXCH  = PE                                                                  
   EATOM  =   264.5486 eV,   19.4438 Ry                                         
                                                                                
   TITEL  = PAW_PBE N 08Apr2002                                                 
   LULTRA =        F    use ultrasoft PP ?                                      
   IUNSCR =        1    unscreen: 0-lin 1-nonlin 2-no                           
   RPACOR =    1.200    partial core radius                                     
   POMASS =   14.001; ZVAL   =    5.000    mass and valenz                      
   RCORE  =    1.500    outmost cutoff radius                                   
   RWIGS  =    1.400; RWIGS  =    0.741    wigner-seitz radius (au A)           
   ENMAX  =  400.000; ENMIN  =  300.000 eV                                      
   ICORE  =        2    local potential                                         
   LCOR   =        T    correct aug charges                                     
   LPAW   =        T    paw PP                                                  
   EAUG   =  627.112                                                            
   DEXC   =    0.000                                                            
   RMAX   =    1.529    core radius for proj-oper                               
   RAUG   =    1.300    factor for augmentation sphere                          
   RDEP   =    1.514    radius for radial grids                                 
   RDEPT  =    1.338    core radius for aug-charge                              
                                                                                
   Atomic configuration                                                         
    4 entries                                                                   
     n  l   j            E        occ.                                          
     1  0  0.50      -384.7179   2.0000                                         
     2  0  0.50       -18.5828   2.0000                                         
     2  1  0.50        -7.0898   3.0000                                         
     3  2  1.50        -6.8029   0.0000                                         
   Description                                                                  
     l       E           TYP  RCUT    TYP  RCUT                                 
     0    -18.5828119     23  1.200                                             
     0    -13.5018863     23  1.200                                             
     1     -7.0897853     23  1.500                                             
     1      9.5240782     23  1.500                                             
     2     -6.8029130      7  1.500                                             
  local pseudopotential read in
  partial core-charges read in
  partial kinetic energy density read in
  atomic valenz-charges read in
  non local Contribution for L=           0  read in
    real space projection operators read in
  non local Contribution for L=           0  read in
    real space projection operators read in
  non local Contribution for L=           1  read in
    real space projection operators read in
  non local Contribution for L=           1  read in
    real space projection operators read in
    PAW grid and wavefunctions read in
 
   number of l-projection  operators is LMAX  =           4
   number of lm-projection operators is LMMAX =           8
 
  PAW_PBE B 06Sep2000                   :
 energy of atom  1       EATOM=  -71.1703
 kinetic energy error for atom=    0.0012 (will be added to EATOM!!)
  PAW_PBE N 08Apr2002                   :
 energy of atom  2       EATOM= -264.5486
 kinetic energy error for atom=    0.0138 (will be added to EATOM!!)
 
 
 POSCAR: B2 N2                                   
  positions in direct lattice
  velocities in cartesian coordinates
 exchange correlation table for  LEXCH =        8
   RHO(1)=    0.500       N(1)  =     2000
   RHO(2)=  100.500       N(2)  =     4000
 


--------------------------------------------------------------------------------------------------------


 ion  position               nearest neighbor table
   1  0.000  0.000  0.000-   3 1.45   3 1.45   3 1.45
   2  0.333  0.667  0.500-   4 1.45   4 1.45   4 1.45
   3  0.333  0.667  0.000-   1 1.45   1 1.45   1 1.45
   4  0.667  0.333  0.500-   2 1.45   2 1.45   2 1.45
 
  LATTYP: Found a hexagonal cell.
 ALAT       =     2.5124746362
 C/A-ratio  =     2.9956358826
  
  Lattice vectors:
  
 A1 = (   1.2562373181,  -2.1758668613,   0.0000000000)
 A2 = (   1.2562373181,   2.1758668613,   0.0000000000)
 A3 = (   0.0000000000,   0.0000000000,   7.5264591742)


Analysis of symmetry for initial positions (statically):
=====================================================================
 Subroutine PRICEL returns:
 Original cell was already a primitive cell.
 

 Routine SETGRP: Setting up the symmetry group for a 
 hexagonal supercell.


 Subroutine GETGRP returns: Found 12 space group operations
 (whereof 12 operations were pure point group operations)
 out of a pool of 24 trial point group operations.


The static configuration has the point symmetry D_3h.


Analysis of symmetry for dynamics (positions and initial velocities):
=====================================================================
 Subroutine PRICEL returns:
 Original cell was already a primitive cell.
 

 Routine SETGRP: Setting up the symmetry group for a 
 hexagonal supercell.


 Subroutine GETGRP returns: Found 12 space group operations
 (whereof 12 operations were pure point group operations)
 out of a pool of 24 trial point group operations.


The dynamic configuration has the point symmetry D_3h.


 Subroutine INISYM returns: Found 12 space group operations
 (whereof 12 operations are pure point group operations),
 and found     1 'primitive' translations

 
 
 KPOINTS: A                                       

Automatic generation of k-mesh.
Space group operators:
 irot       det(A)        alpha          n_x          n_y          n_z        tau_x        tau_y        tau_z
    1     1.000000     0.000000     1.000000     0.000000     0.000000     0.000000     0.000000     0.000000
    2    -1.000000    60.000000     0.000000     0.000000    -1.000000     0.000000     0.000000     0.000000
    3     1.000000   120.000000     0.000000     0.000000    -1.000000     0.000000     0.000000     0.000000
    4    -1.000000   180.000000     0.000000     0.000000     1.000000     0.000000     0.000000     0.000000
    5     1.000000   120.000000     0.000000     0.000000     1.000000     0.000000     0.000000     0.000000
    6    -1.000000    60.000000     0.000000     0.000000     1.000000     0.000000     0.000000     0.000000
    7    -1.000000   180.000000     0.500000    -0.866025     0.000000     0.000000     0.000000     0.000000
    8     1.000000   180.000000     0.000000     1.000000     0.000000     0.000000     0.000000     0.000000
    9    -1.000000   180.000000    -0.500000    -0.866025     0.000000     0.000000     0.000000     0.000000
   10     1.000000   180.000000     0.866025     0.500000     0.000000     0.000000     0.000000     0.000000
   11    -1.000000   180.000000     1.000000     0.000000     0.000000     0.000000     0.000000     0.000000
   12     1.000000   180.000000     0.866025    -0.500000     0.000000     0.000000     0.000000     0.000000
 
 Subroutine IBZKPT returns following result:
 ===========================================
 
 Found     24 irreducible k-points:
 
 Following reciprocal coordinates:
            Coordinates               Weight
  0.000000  0.000000  0.000000      1.000000
  0.111111  0.000000  0.000000      6.000000
  0.222222  0.000000  0.000000      6.000000
  0.333333  0.000000  0.000000      6.000000
  0.444444  0.000000  0.000000      6.000000
  0.111111  0.111111  0.000000      6.000000
  0.222222  0.111111  0.000000     12.000000
  0.333333  0.111111  0.000000     12.000000
  0.444444  0.111111  0.000000      6.000000
  0.222222  0.222222  0.000000      6.000000
  0.333333  0.222222  0.000000     12.000000
  0.333333  0.333333  0.000000      2.000000
  0.000000  0.000000  0.333333      2.000000
  0.111111  0.000000  0.333333     12.000000
  0.222222  0.000000  0.333333     12.000000
  0.333333  0.000000  0.333333     12.000000
  0.444444  0.000000  0.333333     12.000000
  0.111111  0.111111  0.333333     12.000000
  0.222222  0.111111  0.333333     24.000000
  0.333333  0.111111  0.333333     24.000000
  0.444444  0.111111  0.333333     12.000000
  0.222222  0.222222  0.333333     12.000000
  0.333333  0.222222  0.333333     24.000000
  0.333333  0.333333  0.333333      4.000000
 
 Following cartesian coordinates:
            Coordinates               Weight
  0.000000  0.000000  0.000000      1.000000
  0.044224 -0.025533  0.000000      6.000000
  0.088448 -0.051065  0.000000      6.000000
  0.132671 -0.076598  0.000000      6.000000
  0.176895 -0.102130  0.000000      6.000000
  0.088448  0.000000  0.000000      6.000000
  0.132671 -0.025533  0.000000     12.000000
  0.176895 -0.051065  0.000000     12.000000
  0.221119 -0.076598  0.000000      6.000000
  0.176895  0.000000  0.000000      6.000000
  0.221119 -0.025533  0.000000     12.000000
  0.265343  0.000000  0.000000      2.000000
  0.000000  0.000000  0.044288      2.000000
  0.044224 -0.025533  0.044288     12.000000
  0.088448 -0.051065  0.044288     12.000000
  0.132671 -0.076598  0.044288     12.000000
  0.176895 -0.102130  0.044288     12.000000
  0.088448  0.000000  0.044288     12.000000
  0.132671 -0.025533  0.044288     24.000000
  0.176895 -0.051065  0.044288     24.000000
  0.221119 -0.076598  0.044288     12.000000
  0.176895  0.000000  0.044288     12.000000
  0.221119 -0.025533  0.044288     24.000000
  0.265343  0.000000  0.044288      4.000000
 


--------------------------------------------------------------------------------------------------------




 Dimension of arrays:
   k-points           NKPTS =     24   k-points in BZ     NKDIM =     24   number of bands    NBANDS=     20
   number of dos      NEDOS =    301   number of ions     NIONS =      4
   non local maximal  LDIM  =      4   non local SUM 2l+1 LMDIM =      8
   total plane-waves  NPLWV =   8232
   max r-space proj   IRMAX =      1   max aug-charges    IRDMAX=  25156
   dimension x,y,z NGX =    14 NGY =   14 NGZ =   42
   dimension x,y,z NGXF=    28 NGYF=   28 NGZF=   84
   support grid    NGXF=    56 NGYF=   56 NGZF=  168
   ions per type =               2   2
   NGX,Y,Z   is equivalent  to a cutoff of   9.26,  9.26,  9.28 a.u.
   NGXF,Y,Z  is equivalent  to a cutoff of  18.53, 18.53, 18.55 a.u.

 SYSTEM =  BN                                      
 POSCAR =  B2 N2                                   

 Startparameter for this run:
   NWRITE =      2    write-flag & timer
   PREC   = normal    normal or accurate (medium, high low for compatibility)
   ISTART =      1    job   : 0-new  1-cont  2-samecut
   ICHARG =      0    charge: 1-file 2-atom 10-const
   ISPIN  =      1    spin polarized calculation?
   LNONCOLLINEAR =      F non collinear calculations
   LSORBIT =      F    spin-orbit coupling
   INIWAV =      1    electr: 0-lowe 1-rand  2-diag
   LASPH  =      F    aspherical Exc in radial PAW
   METAGGA=      F    non-selfconsistent MetaGGA calc.

 Electronic Relaxation 1
   ENCUT  =  500.0 eV  36.75 Ry    6.06 a.u.   4.58  4.58 13.72*2*pi/ulx,y,z
   ENINI  =  500.0     initial cutoff
   ENAUG  =  627.1 eV  augmentation charge cutoff
   NELM   =     60;   NELMIN=  2; NELMDL=  0     # of ELM steps 
   EDIFF  = 0.1E-03   stopping-criterion for ELM
   LREAL  =      F    real-space projection
   NLSPLINE    = F    spline interpolate recip. space projectors
   LCOMPAT=      F    compatible to vasp.4.4
   GGA_COMPAT  = T    GGA compatible to vasp.4.4-vasp.4.6
   LMAXPAW     = -100 max onsite density
   LMAXMIX     =    2 max onsite mixed and CHGCAR
   VOSKOWN=      0    Vosko Wilk Nusair interpolation
   ROPT   =    0.00000   0.00000
 Ionic relaxation
   EDIFFG = 0.1E-02   stopping-criterion for IOM
   NSW    =      0    number of steps for IOM
   NBLOCK =      1;   KBLOCK =      1    inner block; outer block 
   IBRION =     -1    ionic relax: 0-MD 1-quasi-New 2-CG
   NFREE  =      0    steps in history (QN), initial steepest desc. (CG)
   ISIF   =      2    stress and relaxation
   IWAVPR =     10    prediction:  0-non 1-charg 2-wave 3-comb
   ISYM   =      2    0-nonsym 1-usesym 2-fastsym
   LCORR  =      T    Harris-Foulkes like correction to forces

   POTIM  = 0.5000    time-step for ionic-motion
   TEIN   =    0.0    initial temperature
   TEBEG  =    0.0;   TEEND  =   0.0 temperature during run
   SMASS  =  -3.00    Nose mass-parameter (am)
   estimated Nose-frequenzy (Omega)   =  0.10E-29 period in steps =****** mass=  -0.144E-27a.u.
   SCALEE = 1.0000    scale energy and forces
   NPACO  =    256;   APACO  = 16.0  distance and # of slots for P.C.
   PSTRESS=    0.0 pullay stress

  Mass of Ions in am
   POMASS =  10.81 14.00
  Ionic Valenz
   ZVAL   =   3.00  5.00
  Atomic Wigner-Seitz radii
   RWIGS  =  -1.00 -1.00
  virtual crystal weights 
   VCA    =   1.00  1.00
   NELECT =      16.0000    total number of electrons
   NUPDOWN=      -1.0000    fix difference up-down

 DOS related values:
   EMIN   =  10.00;   EMAX   =-10.00  energy-range for DOS
   EFERMI =   0.00
   ISMEAR =     0;   SIGMA  =   0.05  broadening in eV -4-tet -1-fermi 0-gaus

 Electronic relaxation 2 (details)
   IALGO  =     38    algorithm
   LDIAG  =      T    sub-space diagonalisation (order eigenvalues)
   LSUBROT=      F    optimize rotation matrix (better conditioning)
   TURBO    =      0    0=normal 1=particle mesh
   IRESTART =      0    0=no restart 2=restart with 2 vectors
   NREBOOT  =      0    no. of reboots
   NMIN     =      0    reboot dimension
   EREF     =   0.00    reference energy to select bands
   IMIX   =      4    mixing-type and parameters
     AMIX     =   0.40;   BMIX     =  1.00
     AMIX_MAG =   1.60;   BMIX_MAG =  1.00
     AMIN     =   0.10
     WC   =   100.;   INIMIX=   1;  MIXPRE=   1;  MAXMIX= -45

 Intra band minimization:
   WEIMIN = 0.0000     energy-eigenvalue tresh-hold
   EBREAK =  0.13E-05  absolut break condition
   DEPER  =   0.30     relativ break condition  

   TIME   =   0.40     timestep for ELM

  volume/ion in A,a.u.               =      10.29        69.42
  Fermi-wavevector in a.u.,A,eV,Ry     =   1.194923  2.258077 19.426956  1.427841
  Thomas-Fermi vector in A             =   2.330901
 
 Write flags
   LWAVE        =      T    write WAVECAR
   LDOWNSAMPLE  =      F    k-point downsampling of WAVECAR
   LCHARG       =      T    write CHGCAR
   LVTOT        =      F    write LOCPOT, total local potential
   LVHAR        =      F    write LOCPOT, Hartree potential only
   LELF         =      F    write electronic localiz. function (ELF)
   LORBIT       =     11    0 simple, 1 ext, 2 COOP (PROOUT), +10 PAW based schemes


 Dipole corrections
   LMONO  =      F    monopole corrections only (constant potential shift)
   LDIPOL =      F    correct potential (dipole corrections)
   IDIPOL =      0    1-x, 2-y, 3-z, 4-all directions 
   EPSILON=  1.0000000 bulk dielectric constant

 Exchange correlation treatment:
   GGA     =    --    GGA type
   LEXCH   =     8    internal setting for exchange type
   VOSKOWN=      0    Vosko Wilk Nusair interpolation
   LHFCALC =     F    Hartree Fock is set to
   LHFONE  =     F    Hartree Fock one center treatment
   AEXX    =    0.0000 exact exchange contribution

 Linear response parameters
   LEPSILON=     F    determine dielectric tensor
   LRPA    =     F    only Hartree local field effects (RPA)
   LNABLA  =     F    use nabla operator in PAW spheres
   LVEL    =     F    velocity operator in full k-point grid
   LINTERFAST=   F  fast interpolation
   KINTER  =     0    interpolate to denser k-point grid
   CSHIFT  =0.1000    complex shift for real part using Kramers Kronig
   OMEGAMAX=  -1.0    maximum frequency
   DEG_THRESHOLD= 0.2000000E-02 threshold for treating states as degnerate
   RTIME   =   -0.100 relaxation time in fs
  (WPLASMAI=    0.000 imaginary part of plasma frequency in eV, 0.658/RTIME)
   DFIELD  = 0.0000000 0.0000000 0.0000000 field for delta impulse in time
 
 Orbital magnetization related:
   ORBITALMAG=     F  switch on orbital magnetization
   LCHIMAG   =     F  perturbation theory with respect to B field
   DQ        =  0.001000  dq finite difference perturbation B field
   LLRAUG    =     F  two centre corrections for induced B field



--------------------------------------------------------------------------------------------------------


 Static calculation
 charge density and potential will be updated during run
 non-spin polarized calculation
 Variant of blocked Davidson
 Davidson routine will perform the subspace rotation
 perform sub-space diagonalisation
    after iterative eigenvector-optimisation
 modified Broyden-mixing scheme, WC =      100.0
 initial mixing is a Kerker type mixing with AMIX =  0.4000 and BMIX =      1.0000
 Hartree-type preconditioning will be used
 using additional bands           12
 reciprocal scheme for non local part
 use partial core corrections
 calculate Harris-corrections to forces 
   (improved forces if not selfconsistent)
 use gradient corrections 
 use of overlap-Matrix (Vanderbilt PP)
 Gauss-broadening in eV      SIGMA  =   0.05


--------------------------------------------------------------------------------------------------------


  energy-cutoff  :      500.00
  volume of cell :       41.15
      direct lattice vectors                 reciprocal lattice vectors
     1.256237318 -2.175866861  0.000000000     0.398013968 -0.229793472  0.000000000
     1.256237318  2.175866861  0.000000000     0.398013968  0.229793472  0.000000000
     0.000000000  0.000000000  7.526459174     0.000000000  0.000000000  0.132864602

  length of vectors
     2.512474636  2.512474636  7.526459174     0.459586943  0.459586943  0.132864602


 
 old parameters found on file WAVECAR:
  energy-cutoff  :      500.00
  volume of cell :       41.15
      direct lattice vectors                 reciprocal lattice vectors
     1.256237318 -2.175866861  0.000000000     0.398013968 -0.229793472  0.000000000
     1.256237318  2.175866861  0.000000000     0.398013968  0.229793472  0.000000000
     0.000000000  0.000000000  7.526459174     0.000000000  0.000000000  0.132864602

  length of vectors

 
 k-points in units of 2pi/SCALE and weight: A                                       
   0.00000000  0.00000000  0.00000000       0.004
   0.04422377 -0.02553261  0.00000000       0.025
   0.08844755 -0.05106522  0.00000000       0.025
   0.13267132 -0.07659782  0.00000000       0.025
   0.17689510 -0.10213043  0.00000000       0.025
   0.08844755  0.00000000  0.00000000       0.025
   0.13267132 -0.02553261  0.00000000       0.049
   0.17689510 -0.05106522  0.00000000       0.049
   0.22111887 -0.07659782  0.00000000       0.025
   0.17689510  0.00000000  0.00000000       0.025
   0.22111887 -0.02553261  0.00000000       0.049
   0.26534265  0.00000000  0.00000000       0.008
   0.00000000  0.00000000  0.04428820       0.008
   0.04422377 -0.02553261  0.04428820       0.049
   0.08844755 -0.05106522  0.04428820       0.049
   0.13267132 -0.07659782  0.04428820       0.049
   0.17689510 -0.10213043  0.04428820       0.049
   0.08844755  0.00000000  0.04428820       0.049
   0.13267132 -0.02553261  0.04428820       0.099
   0.17689510 -0.05106522  0.04428820       0.099
   0.22111887 -0.07659782  0.04428820       0.049
   0.17689510  0.00000000  0.04428820       0.049
   0.22111887 -0.02553261  0.04428820       0.099
   0.26534265  0.00000000  0.04428820       0.016
 
 k-points in reciprocal lattice and weights: A                                       
   0.00000000  0.00000000  0.00000000       0.004
   0.11111111  0.00000000  0.00000000       0.025
   0.22222222  0.00000000  0.00000000       0.025
   0.33333333  0.00000000  0.00000000       0.025
   0.44444444  0.00000000  0.00000000       0.025
   0.11111111  0.11111111  0.00000000       0.025
   0.22222222  0.11111111  0.00000000       0.049
   0.33333333  0.11111111  0.00000000       0.049
   0.44444444  0.11111111  0.00000000       0.025
   0.22222222  0.22222222  0.00000000       0.025
   0.33333333  0.22222222  0.00000000       0.049
   0.33333333  0.33333333  0.00000000       0.008
   0.00000000  0.00000000  0.33333333       0.008
   0.11111111  0.00000000  0.33333333       0.049
   0.22222222  0.00000000  0.33333333       0.049
   0.33333333  0.00000000  0.33333333       0.049
   0.44444444  0.00000000  0.33333333       0.049
   0.11111111  0.11111111  0.33333333       0.049
   0.22222222  0.11111111  0.33333333       0.099
   0.33333333  0.11111111  0.33333333       0.099
   0.44444444  0.11111111  0.33333333       0.049
   0.22222222  0.22222222  0.33333333       0.049
   0.33333333  0.22222222  0.33333333       0.099
   0.33333333  0.33333333  0.33333333       0.016
 
 position of ions in fractional coordinates (direct lattice) 
   0.00000000  0.00000000  0.00000000
   0.33333333  0.66666667  0.50000000
   0.33333333  0.66666667  0.00000000
   0.66666667  0.33333333  0.50000000
 
 position of ions in cartesian coordinates  (Angst):
   0.00000000  0.00000000  0.00000000
   1.25623732  0.72528895  3.76322959
   1.25623732  0.72528895  0.00000000
   1.25623732 -0.72528895  3.76322959
 


--------------------------------------------------------------------------------------------------------


 k-point  1 :   0.0000 0.0000 0.0000  plane waves:    1041
 k-point  2 :   0.1111 0.0000 0.0000  plane waves:    1060
 k-point  3 :   0.2222 0.0000 0.0000  plane waves:    1064
 k-point  4 :   0.3333 0.0000 0.0000  plane waves:    1056
 k-point  5 :   0.4444 0.0000 0.0000  plane waves:    1034
 k-point  6 :   0.1111 0.1111 0.0000  plane waves:    1061
 k-point  7 :   0.2222 0.1111 0.0000  plane waves:    1052
 k-point  8 :   0.3333 0.1111 0.0000  plane waves:    1036
 k-point  9 :   0.4444 0.1111 0.0000  plane waves:    1058
 k-point 10 :   0.2222 0.2222 0.0000  plane waves:    1029
 k-point 11 :   0.3333 0.2222 0.0000  plane waves:    1030
 k-point 12 :   0.3333 0.3333 0.0000  plane waves:    1038
 k-point 13 :   0.0000 0.0000 0.3333  plane waves:    1054
 k-point 14 :   0.1111 0.0000 0.3333  plane waves:    1056
 k-point 15 :   0.2222 0.0000 0.3333  plane waves:    1056
 k-point 16 :   0.3333 0.0000 0.3333  plane waves:    1051
 k-point 17 :   0.4444 0.0000 0.3333  plane waves:    1040
 k-point 18 :   0.1111 0.1111 0.3333  plane waves:    1051
 k-point 19 :   0.2222 0.1111 0.3333  plane waves:    1052
 k-point 20 :   0.3333 0.1111 0.3333  plane waves:    1037
 k-point 21 :   0.4444 0.1111 0.3333  plane waves:    1038
 k-point 22 :   0.2222 0.2222 0.3333  plane waves:    1033
 k-point 23 :   0.3333 0.2222 0.3333  plane waves:    1037
 k-point 24 :   0.3333 0.3333 0.3333  plane waves:    1032

 maximum and minimum number of plane-waves per node :      1064     1029

 maximum number of plane-waves:      1064
 maximum index in each direction: 
   IXMAX=    4   IYMAX=    4   IZMAX=   13
   IXMIN=   -5   IYMIN=   -4   IZMIN=  -14


 serial   3D FFT for wavefunctions
 parallel 3D FFT for charge:
    minimum data exchange during FFTs selected (reduces bandwidth)


 total amount of memory used by VASP MPI-rank0    34989. kBytes
=======================================================================

   base      :      30000. kBytes
   nonl-proj :       3386. kBytes
   fftplans  :        561. kBytes
   grid      :        600. kBytes
   one-center:         12. kBytes
   wavefun   :        430. kBytes
 
     INWAV:  cpu time    0.0452: real time    0.0461
 Broyden mixing: mesh for mixing (old mesh)
   NGX =  9   NGY =  9   NGZ = 27
  (NGX  = 28   NGY  = 28   NGZ  = 84)
  gives a total of   2187 points

 charge density for first step will be calculated from the start-wavefunctions


--------------------------------------------------------------------------------------------------------


 Maximum index for augmentation-charges         1246 (set IRDMAX)


--------------------------------------------------------------------------------------------------------


 initial charge from wavefunction
 First call to EWALD:  gamma=   0.513
 Maximum number of real-space cells 4x 4x 2
 Maximum number of reciprocal cells 2x 2x 5

    FEWALD:  cpu time    0.0016: real time    0.0016


--------------------------------------- Iteration      1(   1)  ---------------------------------------


    POTLOK:  cpu time    0.0032: real time    0.0043
    SETDIJ:  cpu time    0.0026: real time    0.0027
     EDDAV:  cpu time    0.1252: real time    0.1263
       DOS:  cpu time    0.0004: real time    0.0004
    CHARGE:  cpu time    0.0034: real time    0.0034
    MIXING:  cpu time    0.0004: real time    0.0004
    --------------------------------------------
      LOOP:  cpu time    0.1352: real time    0.1375

 eigenvalue-minimisations  :  1120
 total energy-change (2. order) :-0.3519569E+02  (-0.1764279E+02)
 number of electron      15.9999999 magnetization 
 augmentation part        0.4445672 magnetization 

 Broyden mixing:
  rms(total) = 0.82989E+00    rms(broyden)= 0.82971E+00
  rms(prec ) = 0.86663E+00
  weight for this iteration     100.00

 Free energy of the ion-electron system (eV)
  ---------------------------------------------------
  alpha Z        PSCENC =        34.59384069
  Ewald energy   TEWEN  =      -421.88703305
  -Hartree energ DENC   =      -286.63524364
  -exchange      EXHF   =         0.00000000
  -V(xc)+E(xc)   XCENC  =        57.00768716
  PAW double counting   =      2494.99857227    -2496.47598449
  entropy T*S    EENTRO =        -0.00000000
  eigenvalues    EBANDS =       -88.20545663
  atomic energy  EATOM  =       671.40793249
  Solvation  Ediel_sol  =         0.00000000
  ---------------------------------------------------
  free energy    TOTEN  =       -35.19568519 eV

  energy without entropy =      -35.19568519  energy(sigma->0) =      -35.19568519


--------------------------------------------------------------------------------------------------------




--------------------------------------- Iteration      1(   2)  ---------------------------------------


    POTLOK:  cpu time    0.0022: real time    0.0034
    SETDIJ:  cpu time    0.0024: real time    0.0024
     EDDAV:  cpu time    0.1799: real time    0.1811
       DOS:  cpu time    0.0002: real time    0.0002
    CHARGE:  cpu time    0.0045: real time    0.0045
    MIXING:  cpu time    0.0003: real time    0.0003
    --------------------------------------------
      LOOP:  cpu time    0.1895: real time    0.1920

 eigenvalue-minimisations  :  1080
 total energy-change (2. order) :-0.2560717E-03  (-0.1809232E+00)
 number of electron      15.9999999 magnetization 
 augmentation part        0.4700250 magnetization 

 Broyden mixing:
  rms(total) = 0.59725E+00    rms(broyden)= 0.59724E+00
  rms(prec ) = 0.59978E+00
  weight for this iteration     100.00

 eigenvalues of (default mixing * dielectric matrix)
  average eigenvalue GAMMA=   2.5243
  2.5243

 Free energy of the ion-electron system (eV)
  ---------------------------------------------------
  alpha Z        PSCENC =        34.59384069
  Ewald energy   TEWEN  =      -421.88703305
  -Hartree energ DENC   =      -282.06857047
  -exchange      EXHF   =         0.00000000
  -V(xc)+E(xc)   XCENC  =        56.70108339
  PAW double counting   =      2254.23773416    -2255.68176618
  entropy T*S    EENTRO =        -0.00000000
  eigenvalues    EBANDS =       -92.49916230
  atomic energy  EATOM  =       671.40793249
  Solvation  Ediel_sol  =         0.00000000
  ---------------------------------------------------
  free energy    TOTEN  =       -35.19594127 eV

  energy without entropy =      -35.19594127  energy(sigma->0) =      -35.19594127


--------------------------------------------------------------------------------------------------------




--------------------------------------- Iteration      1(   3)  ---------------------------------------


    POTLOK:  cpu time    0.0021: real time    0.0023
    SETDIJ:  cpu time    0.0023: real time    0.0024
     EDDAV:  cpu time    0.3491: real time    0.3515
       DOS:  cpu time    0.0002: real time    0.0002
    CHARGE:  cpu time    0.0047: real time    0.0048
    MIXING:  cpu time    0.0002: real time    0.0002
    --------------------------------------------
      LOOP:  cpu time    0.3586: real time    0.3613

 eigenvalue-minimisations  :  1480
 total energy-change (2. order) : 0.1239839E-02  (-0.2551768E-02)
 number of electron      15.9999999 magnetization 
 augmentation part        0.4719302 magnetization 

 Broyden mixing:
  rms(total) = 0.14008E+00    rms(broyden)= 0.14008E+00
  rms(prec ) = 0.14111E+00
  weight for this iteration     100.00

 eigenvalues of (default mixing * dielectric matrix)
  average eigenvalue GAMMA=   1.7696
  1.0692  2.4699

 Free energy of the ion-electron system (eV)
  ---------------------------------------------------
  alpha Z        PSCENC =        34.59384069
  Ewald energy   TEWEN  =      -421.88703305
  -Hartree energ DENC   =      -281.60695127
  -exchange      EXHF   =         0.00000000
  -V(xc)+E(xc)   XCENC  =        56.67444523
  PAW double counting   =      1935.42950952    -1936.88715904
  entropy T*S    EENTRO =        -0.00000000
  eigenvalues    EBANDS =       -92.91928599
  atomic energy  EATOM  =       671.40793249
  Solvation  Ediel_sol  =         0.00000000
  ---------------------------------------------------
  free energy    TOTEN  =       -35.19470143 eV

  energy without entropy =      -35.19470143  energy(sigma->0) =      -35.19470143


--------------------------------------------------------------------------------------------------------




--------------------------------------- Iteration      1(   4)  ---------------------------------------


    POTLOK:  cpu time    0.0021: real time    0.0024
    SETDIJ:  cpu time    0.0023: real time    0.0024
     EDDAV:  cpu time    0.2003: real time    0.2018
       DOS:  cpu time    0.0002: real time    0.0002
    CHARGE:  cpu time    0.0044: real time    0.0045
    MIXING:  cpu time    0.0002: real time    0.0002
    --------------------------------------------
      LOOP:  cpu time    0.2096: real time    0.2113

 eigenvalue-minimisations  :  1140
 total energy-change (2. order) : 0.2686660E-03  (-0.2611721E-03)
 number of electron      15.9999999 magnetization 
 augmentation part        0.4701592 magnetization 

 Broyden mixing:
  rms(total) = 0.73745E-02    rms(broyden)= 0.73742E-02
  rms(prec ) = 0.84214E-02
  weight for this iteration     100.00

 eigenvalues of (default mixing * dielectric matrix)
  average eigenvalue GAMMA=   1.6960
  2.5793  1.0716  1.4370

 Free energy of the ion-electron system (eV)
  ---------------------------------------------------
  alpha Z        PSCENC =        34.59384069
  Ewald energy   TEWEN  =      -421.88703305
  -Hartree energ DENC   =      -281.72844590
  -exchange      EXHF   =         0.00000000
  -V(xc)+E(xc)   XCENC  =        56.68750314
  PAW double counting   =      1853.81102241    -1855.27379799
  entropy T*S    EENTRO =        -0.00000000
  eigenvalues    EBANDS =       -92.80545456
  atomic energy  EATOM  =       671.40793249
  Solvation  Ediel_sol  =         0.00000000
  ---------------------------------------------------
  free energy    TOTEN  =       -35.19443276 eV

  energy without entropy =      -35.19443276  energy(sigma->0) =      -35.19443276


--------------------------------------------------------------------------------------------------------




--------------------------------------- Iteration      1(   5)  ---------------------------------------


    POTLOK:  cpu time    0.0020: real time    0.0023
    SETDIJ:  cpu time    0.0024: real time    0.0024
     EDDAV:  cpu time    0.2951: real time    0.2971
       DOS:  cpu time    0.0002: real time    0.0002
    --------------------------------------------
      LOOP:  cpu time    0.2997: real time    0.3020

 eigenvalue-minimisations  :  1360
 total energy-change (2. order) : 0.1226138E-06  (-0.1255056E-04)
 number of electron      15.9999999 magnetization 
 augmentation part        0.4701592 magnetization 

 Free energy of the ion-electron system (eV)
  ---------------------------------------------------
  alpha Z        PSCENC =        34.59384069
  Ewald energy   TEWEN  =      -421.88703305
  -Hartree energ DENC   =      -281.57388555
  -exchange      EXHF   =         0.00000000
  -V(xc)+E(xc)   XCENC  =        56.67947337
  PAW double counting   =      1847.49206046    -1848.95286632
  entropy T*S    EENTRO =        -0.00000000
  eigenvalues    EBANDS =       -92.95395475
  atomic energy  EATOM  =       671.40793249
  Solvation  Ediel_sol  =         0.00000000
  ---------------------------------------------------
  free energy    TOTEN  =       -35.19443264 eV

  energy without entropy =      -35.19443264  energy(sigma->0) =      -35.19443264


--------------------------------------------------------------------------------------------------------




 average (electrostatic) potential at core
  the test charge radii are     0.7672  0.7089
  (the norm of the test charge is              1.0000)
       1 -30.0246       2 -29.9921       3 -65.9322       4 -65.8946
 
 
 
 E-fermi :   1.5744     XC(G=0):  -9.2293     alpha+bet : -9.6182


 k-point     1 :       0.0000    0.0000    0.0000
  band No.  band energies     occupation 
      1     -16.3639      2.00000
      2     -16.2532      2.00000
      3      -4.4293      2.00000
      4      -3.3233      2.00000
      5      -0.0613      2.00000
      6      -0.0613      2.00000
      7      -0.0263      2.00000
      8      -0.0263      2.00000
      9       5.9614      0.00000
     10      10.1200      0.00000
     11      12.4687      0.00000
     12      12.7974      0.00000
     13      12.7974      0.00000
     14      12.8387      0.00000
     15      12.8387      0.00000
     16      14.0043      0.00000
     17      15.3004      0.00000
     18      16.1788      0.00000
     19      19.5845      0.00000
     20      25.6338      0.00000

 k-point     2 :       0.1111    0.0000    0.0000
  band No.  band energies     occupation 
      1     -16.1272      2.00000
      2     -16.0198      2.00000
      3      -4.1044      2.00000
      4      -3.0204      2.00000
      5      -1.0181      2.00000
      6      -0.9818      2.00000
      7      -0.4976      2.00000
      8      -0.4618      2.00000
      9       6.3829      0.00000
     10      10.1617      0.00000
     11      12.3378      0.00000
     12      12.6969      0.00000
     13      13.2438      0.00000
     14      13.4311      0.00000
     15      13.8182      0.00000
     16      13.8600      0.00000
     17      15.5641      0.00000
     18      16.0509      0.00000
     19      20.0927      0.00000
     20      24.6004      0.00000

 k-point     3 :       0.2222    0.0000    0.0000
  band No.  band energies     occupation 
      1     -15.4425      2.00000
      2     -15.3449      2.00000
      3      -3.1962      2.00000
      4      -3.1541      2.00000
      5      -3.1537      2.00000
      6      -2.1438      2.00000
      7      -1.4256      2.00000
      8      -1.3885      2.00000
      9       7.4830      0.00000
     10       9.8233      0.00000
     11      11.2363      0.00000
     12      11.8624      0.00000
     13      12.4314      0.00000
     14      14.5536      0.00000
     15      15.0853      0.00000
     16      16.4230      0.00000
     17      16.4704      0.00000
     18      17.7247      0.00000
     19      21.0047      0.00000
     20      21.8846      0.00000

 k-point     4 :       0.3333    0.0000    0.0000
  band No.  band energies     occupation 
      1     -14.4209      2.00000
      2     -14.3406      2.00000
      3      -5.5759      2.00000
      4      -5.5245      2.00000
      5      -2.2837      2.00000
      6      -2.2456      2.00000
      7      -1.6863      2.00000
      8      -0.8369      2.00000
      9       8.1635      0.00000
     10       8.7351      0.00000
     11       9.0691      0.00000
     12      11.4306      0.00000
     13      12.3104      0.00000
     14      14.6901      0.00000
     15      16.5854      0.00000
     16      18.9450      0.00000
     17      19.4864      0.00000
     18      19.7205      0.00000
     19      19.7941      0.00000
     20      20.8843      0.00000

 k-point     5 :       0.4444    0.0000    0.0000
  band No.  band energies     occupation 
      1     -13.4471      2.00000
      2     -13.3952      2.00000
      3      -7.3064      2.00000
      4      -7.2472      2.00000
      5      -2.7689      2.00000
      6      -2.7302      2.00000
      7      -0.1192      2.00000
      8       0.3611      2.00000
      9       6.1476      0.00000
     10       6.7837      0.00000
     11      10.5455      0.00000
     12      11.1191      0.00000
     13      12.9785      0.00000
     14      15.2609      0.00000
     15      15.6879      0.00000
     16      17.8339      0.00000
     17      19.4942      0.00000
     18      21.4134      0.00000
     19      22.3974      0.00000
     20      22.5198      0.00000

 k-point     6 :       0.1111    0.1111    0.0000
  band No.  band energies     occupation 
      1     -15.6656      2.00000
      2     -15.5647      2.00000
      3      -3.4660      2.00000
      4      -2.4295      2.00000
      5      -2.4096      2.00000
      6      -2.3735      2.00000
      7      -1.3536      2.00000
      8      -1.3186      2.00000
      9       7.1542      0.00000
     10      10.0311      0.00000
     11      11.8953      0.00000
     12      12.7889      0.00000
     13      12.9687      0.00000
     14      13.4733      0.00000
     15      14.7652      0.00000
     16      14.8394      0.00000
     17      15.9743      0.00000
     18      17.6292      0.00000
     19      20.8653      0.00000
     20      22.3589      0.00000

 k-point     7 :       0.2222    0.1111    0.0000
  band No.  band energies     occupation 
      1     -14.8026      2.00000
      2     -14.7150      2.00000
      3      -4.4747      2.00000
      4      -4.4327      2.00000
      5      -2.4696      2.00000
      6      -2.4319      2.00000
      7      -2.2473      2.00000
      8      -1.3237      2.00000
      9       8.5668      0.00000
     10       9.0224      0.00000
     11       9.7192      0.00000
     12      12.6195      0.00000
     13      13.1688      0.00000
     14      14.4180      0.00000
     15      15.1128      0.00000
     16      16.5876      0.00000
     17      18.5970      0.00000
     18      19.4534      0.00000
     19      20.0461      0.00000
     20      21.4673      0.00000

 k-point     8 :       0.3333    0.1111    0.0000
  band No.  band energies     occupation 
      1     -13.7472      2.00000
      2     -13.6821      2.00000
      3      -6.4934      2.00000
      4      -6.4402      2.00000
      5      -3.2341      2.00000
      6      -3.1937      2.00000
      7      -0.6577      2.00000
      8       0.0218      2.00000
      9       7.0428      0.00000
     10       7.5290      0.00000
     11      10.4078      0.00000
     12      12.2661      0.00000
     13      13.2276      0.00000
     14      14.9570      0.00000
     15      16.2012      0.00000
     16      17.4366      0.00000
     17      18.5578      0.00000
     18      20.2406      0.00000
     19      20.8515      0.00000
     20      21.1017      0.00000

 k-point     9 :       0.4444    0.1111    0.0000
  band No.  band energies     occupation 
      1     -13.1585      2.00000
      2     -13.1167      2.00000
      3      -7.4324      2.00000
      4      -7.3738      2.00000
      5      -3.4993      2.00000
      6      -3.4580      2.00000
      7       0.4111      2.00000
      8       0.6890      2.00000
      9       5.8488      0.00000
     10       6.4302      0.00000
     11      11.7054      0.00000
     12      11.9305      0.00000
     13      13.9608      0.00000
     14      14.6806      0.00000
     15      15.4811      0.00000
     16      16.5616      0.00000
     17      19.4533      0.00000
     18      20.6216      0.00000
     19      21.0794      0.00000
     20      22.3197      0.00000

 k-point    10 :       0.2222    0.2222    0.0000
  band No.  band energies     occupation 
      1     -13.8706      2.00000
      2     -13.8005      2.00000
      3      -5.7471      2.00000
      4      -5.7111      2.00000
      5      -3.9491      2.00000
      6      -3.9110      2.00000
      7      -0.8683      2.00000
      8      -0.1247      2.00000
      9       7.6494      0.00000
     10       7.9126      0.00000
     11      10.3333      0.00000
     12      14.4405      0.00000
     13      14.5024      0.00000
     14      14.7417      0.00000
     15      15.0852      0.00000
     16      16.5938      0.00000
     17      16.6700      0.00000
     18      20.1942      0.00000
     19      20.1973      0.00000
     20      21.0478      0.00000

 k-point    11 :       0.3333    0.2222    0.0000
  band No.  band energies     occupation 
      1     -13.0266      2.00000
      2     -12.9813      2.00000
      3      -6.8299      2.00000
      4      -6.7806      2.00000
      5      -4.8098      2.00000
      6      -4.7651      2.00000
      7       0.5558      2.00000
      8       0.9389      2.00000
      9       6.1985      0.00000
     10       6.4911      0.00000
     11      12.4913      0.00000
     12      14.1004      0.00000
     13      14.3774      0.00000
     14      15.0527      0.00000
     15      15.0789      0.00000
     16      16.1517      0.00000
     17      18.3437      0.00000
     18      20.0439      0.00000
     19      20.1234      0.00000
     20      20.5943      0.00000

 k-point    12 :       0.3333    0.3333    0.0000
  band No.  band energies     occupation 
      1     -12.6946      2.00000
      2     -12.6597      2.00000
      3      -6.5636      2.00000
      4      -6.5340      2.00000
      5      -5.8649      2.00000
      6      -5.8336      2.00000
      7       1.2572      2.00000
      8       1.3052      2.00000
      9       5.8912      0.00000
     10       5.9992      0.00000
     11      13.7790      0.00000
     12      14.1141      0.00000
     13      14.2369      0.00000
     14      14.3621      0.00000
     15      15.5747      0.00000
     16      17.6896      0.00000
     17      19.0413      0.00000
     18      19.2299      0.00000
     19      19.7303      0.00000
     20      20.3231      0.00000

 k-point    13 :       0.0000    0.0000    0.3333
  band No.  band energies     occupation 
      1     -16.3402      2.00000
      2     -16.2779      2.00000
      3      -4.1847      2.00000
      4      -3.6363      2.00000
      5      -0.0615      2.00000
      6      -0.0614      2.00000
      7      -0.0267      2.00000
      8      -0.0267      2.00000
      9       6.7848      0.00000
     10       8.7029      0.00000
     11      12.8006      0.00000
     12      12.8006      0.00000
     13      12.8348      0.00000
     14      12.8348      0.00000
     15      13.1804      0.00000
     16      13.8002      0.00000
     17      15.4496      0.00000
     18      15.8407      0.00000
     19      21.1037      0.00000
     20      24.0067      0.00000

 k-point    14 :       0.1111    0.0000    0.3333
  band No.  band energies     occupation 
      1     -16.1044      2.00000
      2     -16.0435      2.00000
      3      -3.8646      2.00000
      4      -3.3271      2.00000
      5      -1.0154      2.00000
      6      -0.9805      2.00000
      7      -0.4971      2.00000
      8      -0.4623      2.00000
      9       7.1740      0.00000
     10       8.9730      0.00000
     11      12.5121      0.00000
     12      12.6565      0.00000
     13      13.2747      0.00000
     14      13.3701      0.00000
     15      13.8218      0.00000
     16      13.8562      0.00000
     17      15.7966      0.00000
     18      15.9973      0.00000
     19      21.3404      0.00000
     20      23.6834      0.00000

 k-point    15 :       0.2222    0.0000    0.3333
  band No.  band energies     occupation 
      1     -15.4224      2.00000
      2     -15.3656      2.00000
      3      -3.2031      2.00000
      4      -3.1716      2.00000
      5      -2.9084      2.00000
      6      -2.4177      2.00000
      7      -1.4245      2.00000
      8      -1.3895      2.00000
      9       8.1300      0.00000
     10       9.3364      0.00000
     11      11.3754      0.00000
     12      11.7464      0.00000
     13      12.4862      0.00000
     14      13.0147      0.00000
     15      16.4284      0.00000
     16      16.4648      0.00000
     17      16.6581      0.00000
     18      17.5093      0.00000
     19      21.4278      0.00000
     20      22.0587      0.00000

 k-point    16 :       0.3333    0.0000    0.3333
  band No.  band energies     occupation 
      1     -14.4057      2.00000
      2     -14.3561      2.00000
      3      -5.5702      2.00000
      4      -5.5321      2.00000
      5      -2.2821      2.00000
      6      -2.2470      2.00000
      7      -1.4898      2.00000
      8      -1.0660      2.00000
      9       8.1599      0.00000
     10       8.3541      0.00000
     11      10.0972      0.00000
     12      11.2171      0.00000
     13      12.4257      0.00000
     14      13.3149      0.00000
     15      17.5830      0.00000
     16      18.6347      0.00000
     17      19.6355      0.00000
     18      19.7323      0.00000
     19      19.7779      0.00000
     20      21.0007      0.00000

 k-point    17 :       0.4444    0.0000    0.3333
  band No.  band energies     occupation 
      1     -13.4410      2.00000
      2     -13.4015      2.00000
      3      -7.2977      2.00000
      4      -7.2572      2.00000
      5      -2.7671      2.00000
      6      -2.7320      2.00000
      7       0.0011      2.00000
      8       0.2436      2.00000
      9       6.2406      0.00000
     10       6.5521      0.00000
     11      10.8374      0.00000
     12      11.0966      0.00000
     13      13.3873      0.00000
     14      14.5095      0.00000
     15      16.1262      0.00000
     16      17.2404      0.00000
     17      19.6327      0.00000
     18      21.1330      0.00000
     19      22.4118      0.00000
     20      22.4784      0.00000

 k-point    18 :       0.1111    0.1111    0.3333
  band No.  band energies     occupation 
      1     -15.6446      2.00000
      2     -15.5865      2.00000
      3      -3.2397      2.00000
      4      -2.7351      2.00000
      5      -2.3974      2.00000
      6      -2.3626      2.00000
      7      -1.3532      2.00000
      8      -1.3187      2.00000
      9       7.8661      0.00000
     10       9.3278      0.00000
     11      12.0178      0.00000
     12      12.4946      0.00000
     13      12.9546      0.00000
     14      12.9948      0.00000
     15      14.7931      0.00000
     16      14.8445      0.00000
     17      16.8137      0.00000
     18      17.4629      0.00000
     19      21.5479      0.00000
     20      22.3877      0.00000

 k-point    19 :       0.2222    0.1111    0.3333
  band No.  band energies     occupation 
      1     -14.7854      2.00000
      2     -14.7328      2.00000
      3      -4.4728      2.00000
      4      -4.4376      2.00000
      5      -2.4687      2.00000
      6      -2.4344      2.00000
      7      -2.0343      2.00000
      8      -1.5748      2.00000
      9       8.7456      0.00000
     10       8.9576      0.00000
     11      10.3335      0.00000
     12      11.9508      0.00000
     13      13.1640      0.00000
     14      13.3152      0.00000
     15      16.0734      0.00000
     16      16.4912      0.00000
     17      18.8992      0.00000
     18      19.5014      0.00000
     19      19.9337      0.00000
     20      21.2349      0.00000

 k-point    20 :       0.3333    0.1111    0.3333
  band No.  band energies     occupation 
      1     -13.7368      2.00000
      2     -13.6928      2.00000
      3      -6.4867      2.00000
      4      -6.4481      2.00000
      5      -3.2318      2.00000
      6      -3.1964      2.00000
      7      -0.4958      2.00000
      8      -0.1553      2.00000
      9       7.1025      0.00000
     10       7.3345      0.00000
     11      11.1008      0.00000
     12      12.0664      0.00000
     13      13.3173      0.00000
     14      13.9907      0.00000
     15      16.6513      0.00000
     16      17.6143      0.00000
     17      18.3505      0.00000
     18      19.6007      0.00000
     19      21.1829      0.00000
     20      21.8624      0.00000

 k-point    21 :       0.4444    0.1111    0.3333
  band No.  band energies     occupation 
      1     -13.1558      2.00000
      2     -13.1193      2.00000
      3      -7.4238      2.00000
      4      -7.3836      2.00000
      5      -3.4965      2.00000
      6      -3.4609      2.00000
      7       0.4861      2.00000
      8       0.6292      2.00000
      9       5.9385      0.00000
     10       6.2258      0.00000
     11      11.8780      0.00000
     12      11.9821      0.00000
     13      14.1666      0.00000
     14      14.6362      0.00000
     15      15.4722      0.00000
     16      16.6761      0.00000
     17      18.5974      0.00000
     18      20.1461      0.00000
     19      21.7434      0.00000
     20      22.2020      0.00000

 k-point    22 :       0.2222    0.2222    0.3333
  band No.  band energies     occupation 
      1     -13.8587      2.00000
      2     -13.8129      2.00000
      3      -5.7464      2.00000
      4      -5.7129      2.00000
      5      -3.9476      2.00000
      6      -3.9133      2.00000
      7      -0.6933      2.00000
      8      -0.3213      2.00000
      9       7.6623      0.00000
     10       7.7688      0.00000
     11      11.1753      0.00000
     12      12.9364      0.00000
     13      14.6287      0.00000
     14      14.7777      0.00000
     15      15.6395      0.00000
     16      16.3724      0.00000
     17      17.1830      0.00000
     18      18.4295      0.00000
     19      21.2293      0.00000
     20      22.0797      0.00000

 k-point    23 :       0.3333    0.2222    0.3333
  band No.  band energies     occupation 
      1     -13.0228      2.00000
      2     -12.9852      2.00000
      3      -6.8242      2.00000
      4      -6.7871      2.00000
      5      -4.8059      2.00000
      6      -4.7697      2.00000
      7       0.6535      2.00000
      8       0.8479      2.00000
      9       6.2445      0.00000
     10       6.3888      0.00000
     11      12.8071      0.00000
     12      13.5023      0.00000
     13      14.5881      0.00000
     14      14.9159      0.00000
     15      15.6011      0.00000
     16      16.4944      0.00000
     17      17.8709      0.00000
     18      18.9707      0.00000
     19      20.3377      0.00000
     20      21.3080      0.00000

 k-point    24 :       0.3333    0.3333    0.3333
  band No.  band energies     occupation 
      1     -12.6945      2.00000
      2     -12.6597      2.00000
      3      -6.5639      2.00000
      4      -6.5327      2.00000
      5      -5.8667      2.00000
      6      -5.8342      2.00000
      7       1.2692      2.00000
      8       1.3087      2.00000
      9       5.9105      0.00000
     10       5.9557      0.00000
     11      13.1241      0.00000
     12      13.4750      0.00000
     13      14.6642      0.00000
     14      15.7865      0.00000
     15      16.1155      0.00000
     16      17.2022      0.00000
     17      18.4583      0.00000
     18      19.2151      0.00000
     19      19.4306      0.00000
     20      20.6825      0.00000


--------------------------------------------------------------------------------------------------------


 soft charge-density along one line, spin component           1
         0         1         2         3         4         5         6         7         8         9
 total charge-density along one line
 
 pseudopotential strength for first ion, spin component:           1
  6.448   9.818  -0.000  -0.000  -0.000  -0.000  -0.000  -0.000
  9.818  14.944  -0.000  -0.000  -0.000  -0.000  -0.000  -0.000
 -0.000  -0.000  -2.179  -0.000  -0.000  -3.706  -0.000  -0.000
 -0.000  -0.000  -0.000  -2.176  -0.000  -0.000  -3.699  -0.000
 -0.000  -0.000  -0.000  -0.000  -2.179  -0.000  -0.000  -3.706
 -0.000  -0.000  -3.706  -0.000  -0.000  -6.105  -0.000  -0.000
 -0.000  -0.000  -0.000  -3.699  -0.000  -0.000  -6.087  -0.000
 -0.000  -0.000  -0.000  -0.000  -3.706  -0.000  -0.000  -6.105
 total augmentation occupancy for first ion, spin component:           1
  4.195  -1.222  -0.000   0.000   0.000   0.000   0.000   0.000
 -1.222   0.385  -0.000   0.000   0.000  -0.000   0.000   0.000
  0.000  -0.000   4.891   0.000   0.000  -1.470  -0.000   0.000
  0.000   0.000  -0.000   1.587   0.000   0.000  -0.387   0.000
  0.000   0.000   0.000   0.000   4.891   0.000  -0.000  -1.470
  0.000   0.000  -1.470   0.000   0.000   0.458   0.000   0.000
  0.000   0.000   0.000  -0.387  -0.000   0.000   0.096   0.000
  0.000   0.000   0.000   0.000  -1.470   0.000   0.000   0.458


------------------------ aborting loop because EDIFF is reached ----------------------------------------


 


 total charge     
 
# of ion       s       p       d       tot
------------------------------------------
    1        0.740   1.413   0.000   2.153
    2        0.740   1.413   0.000   2.153
    3        1.225   2.786   0.000   4.011
    4        1.225   2.786   0.000   4.011
--------------------------------------------------
tot          3.930   8.398   0.000  12.329
 
    CHARGE:  cpu time    0.0039: real time    0.0039
    FORLOC:  cpu time    0.0001: real time    0.0001
    FORNL :  cpu time    0.0098: real time    0.0099
    STRESS:  cpu time    0.0751: real time    0.0758
    FORCOR:  cpu time    0.0019: real time    0.0019
    FORHAR:  cpu time    0.0006: real time    0.0006
    MIXING:  cpu time    0.0001: real time    0.0001
    OFIELD:  cpu time    0.0000: real time    0.0000

  FORCE on cell =-STRESS in cart. coord.  units (eV):
  Direction    XX          YY          ZZ          XY          YZ          ZX
  --------------------------------------------------------------------------------------
  Alpha Z    34.59384    34.59384    34.59384
  Ewald     121.29472   121.29472  -664.47690    -0.00000    -0.00000    -0.00000
  Hartree   223.90174   223.90174  -166.28867    -0.00000     0.00000     0.00000
  E(xc)     -63.11450   -63.11450   -64.94585    -0.00000    -0.00000     0.00000
  Local    -544.53627  -544.53553   600.41001     0.00000     0.00000    -0.00010
  n-local   -30.87782   -29.29579   -29.93844     0.12156    -0.00509     0.01609
  augment     2.17062     2.17048     2.52433     0.00000     0.00000    -0.00000
  Kinetic   258.52340   253.11038   288.16070     2.37798     0.04991    -0.15974
  Fock        0.00000     0.00000     0.00000     0.00000     0.00000     0.00000
  -------------------------------------------------------------------------------------
  Total       0.04054     0.04054     0.03903    -0.00000    -0.00000    -0.00000
  in kB       1.57849     1.57849     1.51983    -0.00000    -0.00000    -0.00000
  external pressure =        1.56 kB  Pullay stress =        0.00 kB


 VOLUME and BASIS-vectors are now :
 -----------------------------------------------------------------------------
  energy-cutoff  :      500.00
  volume of cell :       41.15
      direct lattice vectors                 reciprocal lattice vectors
     1.256237318 -2.175866861  0.000000000     0.398013968 -0.229793472  0.000000000
     1.256237318  2.175866861  0.000000000     0.398013968  0.229793472  0.000000000
     0.000000000  0.000000000  7.526459174     0.000000000  0.000000000  0.132864602

  length of vectors
     2.512474636  2.512474636  7.526459174     0.459586943  0.459586943  0.132864602


 FORCES acting on ions
    electron-ion (+dipol)            ewald-force                    non-local-force                 convergence-correction
 -----------------------------------------------------------------------------------------------
   0.204E-13 -.121E-04 0.425E-14   0.466E-14 -.651E-11 -.139E-13   0.000E+00 0.000E+00 0.000E+00   0.743E-15 0.125E-06 0.403E-13
   -.254E-13 -.159E-04 -.241E-12   0.347E-14 0.130E-10 0.139E-13   -.278E-16 -.389E-15 0.000E+00   -.356E-15 0.132E-06 -.381E-13
   0.411E-13 -.689E-06 -.814E-12   -.352E-14 0.651E-11 -.231E-13   -.347E-17 0.694E-17 0.000E+00   -.224E-14 0.268E-06 0.838E-13
   0.284E-12 -.280E-05 -.358E-11   -.271E-14 -.130E-10 0.231E-13   0.000E+00 0.555E-16 0.000E+00   0.670E-14 0.279E-06 -.777E-13
 -----------------------------------------------------------------------------------------------
   0.321E-12 -.314E-04 -.464E-11   0.191E-14 0.202E-14 0.000E+00   -.312E-16 -.326E-15 0.000E+00   0.485E-14 0.804E-06 0.830E-14
 
 
 POSITION                                       TOTAL-FORCE (eV/Angst)
 -----------------------------------------------------------------------------------
      0.00000      0.00000      0.00000        -0.000000      0.000000      0.000000
      1.25624      0.72529      3.76323         0.000000      0.000000      0.000000
      1.25624      0.72529      0.00000        -0.000000     -0.000000      0.000000
      1.25624     -0.72529      3.76323        -0.000000     -0.000000      0.000000
 -----------------------------------------------------------------------------------
    total drift:                                0.000000     -0.000031     -0.000000


--------------------------------------------------------------------------------------------------------



  FREE ENERGIE OF THE ION-ELECTRON SYSTEM (eV)
  ---------------------------------------------------
  free  energy   TOTEN  =       -35.19443264 eV

  energy  without entropy=      -35.19443264  energy(sigma->0) =      -35.19443264
 


--------------------------------------------------------------------------------------------------------


    POTLOK:  cpu time    0.0045: real time    0.0046


--------------------------------------------------------------------------------------------------------


 writing wavefunctions
     LOOP+:  cpu time    1.3802: real time    1.3954
    4ORBIT:  cpu time    0.0000: real time    0.0000
 


 total charge     
 
# of ion       s       p       d       tot
------------------------------------------
    1        0.740   1.413   0.000   2.153
    2        0.740   1.413   0.000   2.153
    3        1.225   2.786   0.000   4.011
    4        1.225   2.786   0.000   4.011
--------------------------------------------------
tot          3.930   8.398   0.000  12.329
 

 total amount of memory used by VASP MPI-rank0    34989. kBytes
=======================================================================

   base      :      30000. kBytes
   nonl-proj :       3386. kBytes
   fftplans  :        561. kBytes
   grid      :        600. kBytes
   one-center:         12. kBytes
   wavefun   :        430. kBytes
 
  
  
 General timing and accounting informations for this job:
 ========================================================
  
                  Total CPU time used (sec):        1.897
                            User time (sec):        1.592
                          System time (sec):        0.305
                         Elapsed time (sec):        2.174
  
                   Maximum memory used (kb):       72508.
                   Average memory used (kb):           0.
  
                          Minor page faults:        10258
                          Major page faults:            1
                 Voluntary context switches:         3530
