 vasp.5.4.4.18Apr17-6-g9f103f2a35 (build May 10 2019 17:57:18) complex          
  
 executed on             LinuxIFC date 2024.07.15  18:29:13
 running on   20 total cores
 distrk:  each k-point on   20 cores,    1 groups
 distr:  one band on NCORES_PER_BAND=   1 cores,   20 groups


--------------------------------------------------------------------------------------------------------


 INCAR:
 POTCAR:    PAW_PBE B 06Sep2000                   
 POTCAR:    PAW_PBE N 08Apr2002                   

 ----------------------------------------------------------------------------- 
|                                                                             |
|           W    W    AA    RRRRR   N    N  II  N    N   GGGG   !!!           |
|           W    W   A  A   R    R  NN   N  II  NN   N  G    G  !!!           |
|           W    W  A    A  R    R  N N  N  II  N N  N  G       !!!           |
|           W WW W  AAAAAA  RRRRR   N  N N  II  N  N N  G  GGG   !            |
|           WW  WW  A    A  R   R   N   NN  II  N   NN  G    G                |
|           W    W  A    A  R    R  N    N  II  N    N   GGGG   !!!           |
|                                                                             |
|      For optimal performance we recommend to set                            |
|        NCORE= 4 - approx SQRT( number of cores)                             |
|      NCORE specifies how many cores store one orbital (NPAR=cpu/NCORE).     |
|      This setting can  greatly improve the performance of VASP for DFT.     |
|      The default,   NCORE=1            might be grossly inefficient         |
|      on modern multi-core architectures or massively parallel machines.     |
|      Do your own testing !!!!                                               |
|      Unfortunately you need to use the default for GW and RPA calculations. |
|      (for HF NCORE is supported but not extensively tested yet)             |
|                                                                             |
 ----------------------------------------------------------------------------- 

 POTCAR:    PAW_PBE B 06Sep2000                   
   SHA256 =  a32ced30f5ae56fd4d10b4325ff17eb3e4e38ee0f4288bc219fb012fddfa6e97 B/
   COPYR  = (c) Copyright 06Sep2000 Georg Kresse                                
   COPYR  = This file is part of the software VASP. Any use, copying, and all ot
   COPYR  = If you do not have a valid VASP license, you may not use, copy or di
   VRHFIN =B: s2p1                                                              
   LEXCH  = PE                                                                  
   EATOM  =    71.1703 eV,    5.2309 Ry                                         
                                                                                
   TITEL  = PAW_PBE B 06Sep2000                                                 
   LULTRA =        F    use ultrasoft PP ?                                      
   IUNSCR =        1    unscreen: 0-lin 1-nonlin 2-no                           
   RPACOR =    1.200    partial core radius                                     
   POMASS =   10.811; ZVAL   =    3.000    mass and valenz                      
   RCORE  =    1.700    outmost cutoff radius                                   
   RWIGS  =    1.710; RWIGS  =    0.905    wigner-seitz radius (au A)           
   ENMAX  =  318.614; ENMIN  =  238.960 eV                                      
   ICORE  =        2    local potential                                         
   LCOR   =        T    correct aug charges                                     
   LPAW   =        T    paw PP                                                  
   EAUG   =  535.514                                                            
   DEXC   =    0.000                                                            
   RMAX   =    1.732    core radius for proj-oper                               
   RAUG   =    1.300    factor for augmentation sphere                          
   RDEP   =    1.757    radius for radial grids                                 
   RDEPT  =    1.436    core radius for aug-charge                              
                                                                                
   Atomic configuration                                                         
    4 entries                                                                   
     n  l   j            E        occ.                                          
     1  0  0.50      -180.5896   2.0000                                         
     2  0  0.50        -9.4431   2.0000                                         
     2  1  0.50        -3.6068   1.0000                                         
     3  2  1.50        -4.0817   0.0000                                         
   Description                                                                  
     l       E           TYP  RCUT    TYP  RCUT                                 
     0     -9.4430752     23  1.500                                             
     0      0.8675899     23  1.500                                             
     1     -3.6067955     23  1.700                                             
     1      6.1086146     23  1.700                                             
     2     -4.0817478      7  1.700                                             
  local pseudopotential read in
  partial core-charges read in
  partial kinetic energy density read in
  atomic valenz-charges read in
  non local Contribution for L=           0  read in
    real space projection operators read in
  non local Contribution for L=           0  read in
    real space projection operators read in
  non local Contribution for L=           1  read in
    real space projection operators read in
  non local Contribution for L=           1  read in
    real space projection operators read in
    PAW grid and wavefunctions read in
 
   number of l-projection  operators is LMAX  =           4
   number of lm-projection operators is LMMAX =           8
 
 POTCAR:    PAW_PBE N 08Apr2002                   
   SHA256 =  e053789ff3a61a86a1b75d8a110fcc91f86041011e7b0817c7c99e4e8a6349d7 N/
   COPYR  = (c) Copyright 08Apr2002 Georg Kresse                                
   COPYR  = This file is part of the software VASP. Any use, copying, and all ot
   COPYR  = If you do not have a valid VASP license, you may not use, copy or di
   VRHFIN =N: s2p3                                                              
   LEXCH  = PE                                                                  
   EATOM  =   264.5486 eV,   19.4438 Ry                                         
                                                                                
   TITEL  = PAW_PBE N 08Apr2002                                                 
   LULTRA =        F    use ultrasoft PP ?                                      
   IUNSCR =        1    unscreen: 0-lin 1-nonlin 2-no                           
   RPACOR =    1.200    partial core radius                                     
   POMASS =   14.001; ZVAL   =    5.000    mass and valenz                      
   RCORE  =    1.500    outmost cutoff radius                                   
   RWIGS  =    1.400; RWIGS  =    0.741    wigner-seitz radius (au A)           
   ENMAX  =  400.000; ENMIN  =  300.000 eV                                      
   ICORE  =        2    local potential                                         
   LCOR   =        T    correct aug charges                                     
   LPAW   =        T    paw PP                                                  
   EAUG   =  627.112                                                            
   DEXC   =    0.000                                                            
   RMAX   =    1.529    core radius for proj-oper                               
   RAUG   =    1.300    factor for augmentation sphere                          
   RDEP   =    1.514    radius for radial grids                                 
   RDEPT  =    1.338    core radius for aug-charge                              
                                                                                
   Atomic configuration                                                         
    4 entries                                                                   
     n  l   j            E        occ.                                          
     1  0  0.50      -384.7179   2.0000                                         
     2  0  0.50       -18.5828   2.0000                                         
     2  1  0.50        -7.0898   3.0000                                         
     3  2  1.50        -6.8029   0.0000                                         
   Description                                                                  
     l       E           TYP  RCUT    TYP  RCUT                                 
     0    -18.5828119     23  1.200                                             
     0    -13.5018863     23  1.200                                             
     1     -7.0897853     23  1.500                                             
     1      9.5240782     23  1.500                                             
     2     -6.8029130      7  1.500                                             
  local pseudopotential read in
  partial core-charges read in
  partial kinetic energy density read in
  atomic valenz-charges read in
  non local Contribution for L=           0  read in
    real space projection operators read in
  non local Contribution for L=           0  read in
    real space projection operators read in
  non local Contribution for L=           1  read in
    real space projection operators read in
  non local Contribution for L=           1  read in
    real space projection operators read in
    PAW grid and wavefunctions read in
 
   number of l-projection  operators is LMAX  =           4
   number of lm-projection operators is LMMAX =           8
 
  PAW_PBE B 06Sep2000                   :
 energy of atom  1       EATOM=  -71.1703
 kinetic energy error for atom=    0.0012 (will be added to EATOM!!)
  PAW_PBE N 08Apr2002                   :
 energy of atom  2       EATOM= -264.5486
 kinetic energy error for atom=    0.0138 (will be added to EATOM!!)
 
 
 POSCAR: B2 N2                                   
  positions in direct lattice
  velocities in cartesian coordinates
 exchange correlation table for  LEXCH =        8
   RHO(1)=    0.500       N(1)  =     2000
   RHO(2)=  100.500       N(2)  =     4000
 


--------------------------------------------------------------------------------------------------------


 ion  position               nearest neighbor table
   1  0.000  0.000  0.000-   3 1.45   3 1.45   3 1.45
   2  0.333  0.667  0.500-   4 1.45   4 1.45   4 1.45
   3  0.333  0.667  0.000-   1 1.45   1 1.45   1 1.45
   4  0.667  0.333  0.500-   2 1.45   2 1.45   2 1.45
 
  LATTYP: Found a hexagonal cell.
 ALAT       =     2.5124746362
 C/A-ratio  =     2.9956358826
  
  Lattice vectors:
  
 A1 = (   1.2562373181,  -2.1758668613,   0.0000000000)
 A2 = (   1.2562373181,   2.1758668613,   0.0000000000)
 A3 = (   0.0000000000,   0.0000000000,   7.5264591742)


Analysis of symmetry for initial positions (statically):
=====================================================================
 Subroutine PRICEL returns:
 Original cell was already a primitive cell.
 

 Routine SETGRP: Setting up the symmetry group for a 
 hexagonal supercell.


 Subroutine GETGRP returns: Found 12 space group operations
 (whereof 12 operations were pure point group operations)
 out of a pool of 24 trial point group operations.


The static configuration has the point symmetry D_3h.


Analysis of symmetry for dynamics (positions and initial velocities):
=====================================================================
 Subroutine PRICEL returns:
 Original cell was already a primitive cell.
 

 Routine SETGRP: Setting up the symmetry group for a 
 hexagonal supercell.


 Subroutine GETGRP returns: Found 12 space group operations
 (whereof 12 operations were pure point group operations)
 out of a pool of 24 trial point group operations.


The dynamic configuration has the point symmetry D_3h.


 Subroutine INISYM returns: Found 12 space group operations
 (whereof 12 operations are pure point group operations),
 and found     1 'primitive' translations

 
 
 KPOINTS: A                                       

Automatic generation of k-mesh.
Space group operators:
 irot       det(A)        alpha          n_x          n_y          n_z        tau_x        tau_y        tau_z
    1     1.000000     0.000000     1.000000     0.000000     0.000000     0.000000     0.000000     0.000000
    2    -1.000000    60.000000     0.000000     0.000000    -1.000000     0.000000     0.000000     0.000000
    3     1.000000   120.000000     0.000000     0.000000    -1.000000     0.000000     0.000000     0.000000
    4    -1.000000   180.000000     0.000000     0.000000     1.000000     0.000000     0.000000     0.000000
    5     1.000000   120.000000     0.000000     0.000000     1.000000     0.000000     0.000000     0.000000
    6    -1.000000    60.000000     0.000000     0.000000     1.000000     0.000000     0.000000     0.000000
    7    -1.000000   180.000000     0.500000    -0.866025     0.000000     0.000000     0.000000     0.000000
    8     1.000000   180.000000     0.000000     1.000000     0.000000     0.000000     0.000000     0.000000
    9    -1.000000   180.000000    -0.500000    -0.866025     0.000000     0.000000     0.000000     0.000000
   10     1.000000   180.000000     0.866025     0.500000     0.000000     0.000000     0.000000     0.000000
   11    -1.000000   180.000000     1.000000     0.000000     0.000000     0.000000     0.000000     0.000000
   12     1.000000   180.000000     0.866025    -0.500000     0.000000     0.000000     0.000000     0.000000
 
 Subroutine IBZKPT returns following result:
 ===========================================
 
 Found      4 irreducible k-points:
 
 Following reciprocal coordinates:
            Coordinates               Weight
  0.000000  0.000000  0.000000      1.000000
  0.500000  0.000000  0.000000      3.000000
  0.000000  0.000000  0.333333      2.000000
  0.500000  0.000000  0.333333      6.000000
 
 Following cartesian coordinates:
            Coordinates               Weight
  0.000000  0.000000  0.000000      1.000000
  0.199007 -0.114897  0.000000      3.000000
  0.000000  0.000000  0.044288      2.000000
  0.199007 -0.114897  0.044288      6.000000
 


--------------------------------------------------------------------------------------------------------




 Dimension of arrays:
   k-points           NKPTS =      4   k-points in BZ     NKDIM =      4   number of bands    NBANDS=     20
   number of dos      NEDOS =    301   number of ions     NIONS =      4
   non local maximal  LDIM  =      4   non local SUM 2l+1 LMDIM =      8
   total plane-waves  NPLWV =   8232
   max r-space proj   IRMAX =      1   max aug-charges    IRDMAX=  25156
   dimension x,y,z NGX =    14 NGY =   14 NGZ =   42
   dimension x,y,z NGXF=    28 NGYF=   28 NGZF=   84
   support grid    NGXF=    56 NGYF=   56 NGZF=  168
   ions per type =               2   2
   NGX,Y,Z   is equivalent  to a cutoff of   9.26,  9.26,  9.28 a.u.
   NGXF,Y,Z  is equivalent  to a cutoff of  18.53, 18.53, 18.55 a.u.

 SYSTEM =  BN                                      
 POSCAR =  B2 N2                                   

 Startparameter for this run:
   NWRITE =      2    write-flag & timer
   PREC   = normal    normal or accurate (medium, high low for compatibility)
   ISTART =      1    job   : 0-new  1-cont  2-samecut
   ICHARG =      0    charge: 1-file 2-atom 10-const
   ISPIN  =      1    spin polarized calculation?
   LNONCOLLINEAR =      F non collinear calculations
   LSORBIT =      F    spin-orbit coupling
   INIWAV =      1    electr: 0-lowe 1-rand  2-diag
   LASPH  =      F    aspherical Exc in radial PAW
   METAGGA=      F    non-selfconsistent MetaGGA calc.

 Electronic Relaxation 1
   ENCUT  =  500.0 eV  36.75 Ry    6.06 a.u.   4.58  4.58 13.72*2*pi/ulx,y,z
   ENINI  =  500.0     initial cutoff
   ENAUG  =  627.1 eV  augmentation charge cutoff
   NELM   =     60;   NELMIN=  2; NELMDL=  0     # of ELM steps 
   EDIFF  = 0.1E-03   stopping-criterion for ELM
   LREAL  =      F    real-space projection
   NLSPLINE    = F    spline interpolate recip. space projectors
   LCOMPAT=      F    compatible to vasp.4.4
   GGA_COMPAT  = T    GGA compatible to vasp.4.4-vasp.4.6
   LMAXPAW     = -100 max onsite density
   LMAXMIX     =    2 max onsite mixed and CHGCAR
   VOSKOWN=      0    Vosko Wilk Nusair interpolation
   ROPT   =    0.00000   0.00000
 Ionic relaxation
   EDIFFG = 0.1E-02   stopping-criterion for IOM
   NSW    =      0    number of steps for IOM
   NBLOCK =      1;   KBLOCK =      1    inner block; outer block 
   IBRION =     -1    ionic relax: 0-MD 1-quasi-New 2-CG
   NFREE  =      0    steps in history (QN), initial steepest desc. (CG)
   ISIF   =      2    stress and relaxation
   IWAVPR =     10    prediction:  0-non 1-charg 2-wave 3-comb
   ISYM   =      2    0-nonsym 1-usesym 2-fastsym
   LCORR  =      T    Harris-Foulkes like correction to forces

   POTIM  = 0.5000    time-step for ionic-motion
   TEIN   =    0.0    initial temperature
   TEBEG  =    0.0;   TEEND  =   0.0 temperature during run
   SMASS  =  -3.00    Nose mass-parameter (am)
   estimated Nose-frequenzy (Omega)   =  0.10E-29 period in steps =****** mass=  -0.144E-27a.u.
   SCALEE = 1.0000    scale energy and forces
   NPACO  =    256;   APACO  = 16.0  distance and # of slots for P.C.
   PSTRESS=    0.0 pullay stress

  Mass of Ions in am
   POMASS =  10.81 14.00
  Ionic Valenz
   ZVAL   =   3.00  5.00
  Atomic Wigner-Seitz radii
   RWIGS  =  -1.00 -1.00
  virtual crystal weights 
   VCA    =   1.00  1.00
   NELECT =      16.0000    total number of electrons
   NUPDOWN=      -1.0000    fix difference up-down

 DOS related values:
   EMIN   =  10.00;   EMAX   =-10.00  energy-range for DOS
   EFERMI =   0.00
   ISMEAR =     0;   SIGMA  =   0.05  broadening in eV -4-tet -1-fermi 0-gaus

 Electronic relaxation 2 (details)
   IALGO  =     38    algorithm
   LDIAG  =      T    sub-space diagonalisation (order eigenvalues)
   LSUBROT=      F    optimize rotation matrix (better conditioning)
   TURBO    =      0    0=normal 1=particle mesh
   IRESTART =      0    0=no restart 2=restart with 2 vectors
   NREBOOT  =      0    no. of reboots
   NMIN     =      0    reboot dimension
   EREF     =   0.00    reference energy to select bands
   IMIX   =      4    mixing-type and parameters
     AMIX     =   0.40;   BMIX     =  1.00
     AMIX_MAG =   1.60;   BMIX_MAG =  1.00
     AMIN     =   0.10
     WC   =   100.;   INIMIX=   1;  MIXPRE=   1;  MAXMIX= -45

 Intra band minimization:
   WEIMIN = 0.0000     energy-eigenvalue tresh-hold
   EBREAK =  0.13E-05  absolut break condition
   DEPER  =   0.30     relativ break condition  

   TIME   =   0.40     timestep for ELM

  volume/ion in A,a.u.               =      10.29        69.42
  Fermi-wavevector in a.u.,A,eV,Ry     =   1.194923  2.258077 19.426956  1.427841
  Thomas-Fermi vector in A             =   2.330901
 
 Write flags
   LWAVE        =      T    write WAVECAR
   LDOWNSAMPLE  =      F    k-point downsampling of WAVECAR
   LCHARG       =      T    write CHGCAR
   LVTOT        =      F    write LOCPOT, total local potential
   LVHAR        =      F    write LOCPOT, Hartree potential only
   LELF         =      F    write electronic localiz. function (ELF)
   LORBIT       =     11    0 simple, 1 ext, 2 COOP (PROOUT), +10 PAW based schemes


 Dipole corrections
   LMONO  =      F    monopole corrections only (constant potential shift)
   LDIPOL =      F    correct potential (dipole corrections)
   IDIPOL =      0    1-x, 2-y, 3-z, 4-all directions 
   EPSILON=  1.0000000 bulk dielectric constant

 Exchange correlation treatment:
   GGA     =    --    GGA type
   LEXCH   =     8    internal setting for exchange type
   VOSKOWN=      0    Vosko Wilk Nusair interpolation
   LHFCALC =     F    Hartree Fock is set to
   LHFONE  =     F    Hartree Fock one center treatment
   AEXX    =    0.0000 exact exchange contribution

 Linear response parameters
   LEPSILON=     F    determine dielectric tensor
   LRPA    =     F    only Hartree local field effects (RPA)
   LNABLA  =     F    use nabla operator in PAW spheres
   LVEL    =     F    velocity operator in full k-point grid
   LINTERFAST=   F  fast interpolation
   KINTER  =     0    interpolate to denser k-point grid
   CSHIFT  =0.1000    complex shift for real part using Kramers Kronig
   OMEGAMAX=  -1.0    maximum frequency
   DEG_THRESHOLD= 0.2000000E-02 threshold for treating states as degnerate
   RTIME   =   -0.100 relaxation time in fs
  (WPLASMAI=    0.000 imaginary part of plasma frequency in eV, 0.658/RTIME)
   DFIELD  = 0.0000000 0.0000000 0.0000000 field for delta impulse in time
 
 Orbital magnetization related:
   ORBITALMAG=     F  switch on orbital magnetization
   LCHIMAG   =     F  perturbation theory with respect to B field
   DQ        =  0.001000  dq finite difference perturbation B field
   LLRAUG    =     F  two centre corrections for induced B field



--------------------------------------------------------------------------------------------------------


 Static calculation
 charge density and potential will be updated during run
 non-spin polarized calculation
 Variant of blocked Davidson
 Davidson routine will perform the subspace rotation
 perform sub-space diagonalisation
    after iterative eigenvector-optimisation
 modified Broyden-mixing scheme, WC =      100.0
 initial mixing is a Kerker type mixing with AMIX =  0.4000 and BMIX =      1.0000
 Hartree-type preconditioning will be used
 using additional bands           12
 reciprocal scheme for non local part
 use partial core corrections
 calculate Harris-corrections to forces 
   (improved forces if not selfconsistent)
 use gradient corrections 
 use of overlap-Matrix (Vanderbilt PP)
 Gauss-broadening in eV      SIGMA  =   0.05


--------------------------------------------------------------------------------------------------------


  energy-cutoff  :      500.00
  volume of cell :       41.15
      direct lattice vectors                 reciprocal lattice vectors
     1.256237318 -2.175866861  0.000000000     0.398013968 -0.229793472  0.000000000
     1.256237318  2.175866861  0.000000000     0.398013968  0.229793472  0.000000000
     0.000000000  0.000000000  7.526459174     0.000000000  0.000000000  0.132864602

  length of vectors
     2.512474636  2.512474636  7.526459174     0.459586943  0.459586943  0.132864602


 
 old parameters found on file WAVECAR:
  energy-cutoff  :      500.00
  volume of cell :       41.15
      direct lattice vectors                 reciprocal lattice vectors
     1.256237318 -2.175866861  0.000000000     0.398013968 -0.229793472  0.000000000
     1.256237318  2.175866861  0.000000000     0.398013968  0.229793472  0.000000000
     0.000000000  0.000000000  7.526459174     0.000000000  0.000000000  0.132864602

  length of vectors

 
 k-points in units of 2pi/SCALE and weight: A                                       
   0.00000000  0.00000000  0.00000000       0.083
   0.19900698 -0.11489674  0.00000000       0.250
   0.00000000  0.00000000  0.04428820       0.167
   0.19900698 -0.11489674  0.04428820       0.500
 
 k-points in reciprocal lattice and weights: A                                       
   0.00000000  0.00000000  0.00000000       0.083
   0.50000000  0.00000000  0.00000000       0.250
   0.00000000  0.00000000  0.33333333       0.167
   0.50000000  0.00000000  0.33333333       0.500
 
 position of ions in fractional coordinates (direct lattice) 
   0.00000000  0.00000000  0.00000000
   0.33333333  0.66666667  0.50000000
   0.33333333  0.66666667  0.00000000
   0.66666667  0.33333333  0.50000000
 
 position of ions in cartesian coordinates  (Angst):
   0.00000000  0.00000000  0.00000000
   1.25623732  0.72528895  3.76322959
   1.25623732  0.72528895  0.00000000
   1.25623732 -0.72528895  3.76322959
 


--------------------------------------------------------------------------------------------------------


 k-point  1 :   0.0000 0.0000 0.0000  plane waves:    1041
 k-point  2 :   0.5000 0.0000 0.0000  plane waves:    1032
 k-point  3 :   0.0000 0.0000 0.3333  plane waves:    1054
 k-point  4 :   0.5000 0.0000 0.3333  plane waves:    1038

 maximum and minimum number of plane-waves per node :      1054     1032

 maximum number of plane-waves:      1054
 maximum index in each direction: 
   IXMAX=    4   IYMAX=    4   IZMAX=   13
   IXMIN=   -5   IYMIN=   -4   IZMIN=  -14


 serial   3D FFT for wavefunctions
 parallel 3D FFT for charge:
    minimum data exchange during FFTs selected (reduces bandwidth)


 total amount of memory used by VASP MPI-rank0    31853. kBytes
=======================================================================

   base      :      30000. kBytes
   nonl-proj :        610. kBytes
   fftplans  :        561. kBytes
   grid      :        600. kBytes
   one-center:         12. kBytes
   wavefun   :         70. kBytes
 
     INWAV:  cpu time    0.0064: real time    0.0068
 Broyden mixing: mesh for mixing (old mesh)
   NGX =  9   NGY =  9   NGZ = 27
  (NGX  = 28   NGY  = 28   NGZ  = 84)
  gives a total of   2187 points

 charge density for first step will be calculated from the start-wavefunctions


--------------------------------------------------------------------------------------------------------


 Maximum index for augmentation-charges         1246 (set IRDMAX)


--------------------------------------------------------------------------------------------------------


 initial charge from wavefunction
 First call to EWALD:  gamma=   0.513
 Maximum number of real-space cells 4x 4x 2
 Maximum number of reciprocal cells 2x 2x 5

    FEWALD:  cpu time    0.0016: real time    0.0016


--------------------------------------- Iteration      1(   1)  ---------------------------------------


    POTLOK:  cpu time    0.0032: real time    0.0040
    SETDIJ:  cpu time    0.0026: real time    0.0026
     EDDAV:  cpu time    0.0170: real time    0.0172
       DOS:  cpu time    0.0003: real time    0.0003
    CHARGE:  cpu time    0.0016: real time    0.0016
    MIXING:  cpu time    0.0004: real time    0.0004
    --------------------------------------------
      LOOP:  cpu time    0.0252: real time    0.0262

 eigenvalue-minimisations  :   160
 total energy-change (2. order) :-0.3159390E+02  (-0.1055088E+03)
 number of electron      15.9999999 magnetization 
 augmentation part        0.5699147 magnetization 

 Broyden mixing:
  rms(total) = 0.53970E+01    rms(broyden)= 0.53967E+01
  rms(prec ) = 0.54147E+01
  weight for this iteration     100.00

 Free energy of the ion-electron system (eV)
  ---------------------------------------------------
  alpha Z        PSCENC =        34.59384069
  Ewald energy   TEWEN  =      -421.88703305
  -Hartree energ DENC   =      -286.22465073
  -exchange      EXHF   =         0.00000000
  -V(xc)+E(xc)   XCENC  =        57.24655714
  PAW double counting   =      8486.23164554    -8488.50523201
  entropy T*S    EENTRO =        -0.00000000
  eigenvalues    EBANDS =       -84.45696049
  atomic energy  EATOM  =       671.40793249
  Solvation  Ediel_sol  =         0.00000000
  ---------------------------------------------------
  free energy    TOTEN  =       -31.59390041 eV

  energy without entropy =      -31.59390041  energy(sigma->0) =      -31.59390041


--------------------------------------------------------------------------------------------------------




--------------------------------------- Iteration      1(   2)  ---------------------------------------


    POTLOK:  cpu time    0.0022: real time    0.0024
    SETDIJ:  cpu time    0.0024: real time    0.0024
     EDDAV:  cpu time    0.0298: real time    0.0300
       DOS:  cpu time    0.0002: real time    0.0002
    CHARGE:  cpu time    0.0021: real time    0.0021
    MIXING:  cpu time    0.0002: real time    0.0002
    --------------------------------------------
      LOOP:  cpu time    0.0368: real time    0.0373

 eigenvalue-minimisations  :   180
 total energy-change (2. order) :-0.5347862E+00  (-0.6102603E+00)
 number of electron      15.9999999 magnetization 
 augmentation part        0.5521585 magnetization 

 Broyden mixing:
  rms(total) = 0.36048E+01    rms(broyden)= 0.36048E+01
  rms(prec ) = 0.36132E+01
  weight for this iteration     100.00

 eigenvalues of (default mixing * dielectric matrix)
  average eigenvalue GAMMA=   2.9978
  2.9978

 Free energy of the ion-electron system (eV)
  ---------------------------------------------------
  alpha Z        PSCENC =        34.59384069
  Ewald energy   TEWEN  =      -421.88703305
  -Hartree energ DENC   =      -285.64403994
  -exchange      EXHF   =         0.00000000
  -V(xc)+E(xc)   XCENC  =        57.09100850
  PAW double counting   =      5390.29726738    -5392.31781597
  entropy T*S    EENTRO =        -0.00000000
  eigenvalues    EBANDS =       -85.66984670
  atomic energy  EATOM  =       671.40793249
  Solvation  Ediel_sol  =         0.00000000
  ---------------------------------------------------
  free energy    TOTEN  =       -32.12868659 eV

  energy without entropy =      -32.12868659  energy(sigma->0) =      -32.12868659


--------------------------------------------------------------------------------------------------------




--------------------------------------- Iteration      1(   3)  ---------------------------------------


    POTLOK:  cpu time    0.0022: real time    0.0024
    SETDIJ:  cpu time    0.0023: real time    0.0023
     EDDAV:  cpu time    0.0472: real time    0.0476
       DOS:  cpu time    0.0003: real time    0.0003
    CHARGE:  cpu time    0.0021: real time    0.0021
    MIXING:  cpu time    0.0002: real time    0.0002
    --------------------------------------------
      LOOP:  cpu time    0.0542: real time    0.0548

 eigenvalue-minimisations  :   220
 total energy-change (2. order) :-0.1354938E-01  (-0.2582537E-01)
 number of electron      15.9999999 magnetization 
 augmentation part        0.5485106 magnetization 

 Broyden mixing:
  rms(total) = 0.66427E+00    rms(broyden)= 0.66427E+00
  rms(prec ) = 0.66769E+00
  weight for this iteration     100.00

 eigenvalues of (default mixing * dielectric matrix)
  average eigenvalue GAMMA=   1.7674
  1.0359  2.4988

 Free energy of the ion-electron system (eV)
  ---------------------------------------------------
  alpha Z        PSCENC =        34.59384069
  Ewald energy   TEWEN  =      -421.88703305
  -Hartree energ DENC   =      -286.71749100
  -exchange      EXHF   =         0.00000000
  -V(xc)+E(xc)   XCENC  =        57.03821999
  PAW double counting   =      1487.94251746    -1489.48165934
  entropy T*S    EENTRO =        -0.00000000
  eigenvalues    EBANDS =       -85.03856322
  atomic energy  EATOM  =       671.40793249
  Solvation  Ediel_sol  =         0.00000000
  ---------------------------------------------------
  free energy    TOTEN  =       -32.14223597 eV

  energy without entropy =      -32.14223597  energy(sigma->0) =      -32.14223597


--------------------------------------------------------------------------------------------------------




--------------------------------------- Iteration      1(   4)  ---------------------------------------


    POTLOK:  cpu time    0.0022: real time    0.0024
    SETDIJ:  cpu time    0.0023: real time    0.0023
     EDDAV:  cpu time    0.0405: real time    0.0408
       DOS:  cpu time    0.0002: real time    0.0002
    CHARGE:  cpu time    0.0021: real time    0.0021
    MIXING:  cpu time    0.0002: real time    0.0002
    --------------------------------------------
      LOOP:  cpu time    0.0474: real time    0.0480

 eigenvalue-minimisations  :   200
 total energy-change (2. order) : 0.6858085E-02  (-0.2175490E-02)
 number of electron      15.9999999 magnetization 
 augmentation part        0.5508453 magnetization 

 Broyden mixing:
  rms(total) = 0.25077E-01    rms(broyden)= 0.25068E-01
  rms(prec ) = 0.30229E-01
  weight for this iteration     100.00

 eigenvalues of (default mixing * dielectric matrix)
  average eigenvalue GAMMA=   1.6464
  2.4784  0.9326  1.5280

 Free energy of the ion-electron system (eV)
  ---------------------------------------------------
  alpha Z        PSCENC =        34.59384069
  Ewald energy   TEWEN  =      -421.88703305
  -Hartree energ DENC   =      -286.57466729
  -exchange      EXHF   =         0.00000000
  -V(xc)+E(xc)   XCENC  =        57.02633471
  PAW double counting   =      1901.17239071    -1902.78675892
  entropy T*S    EENTRO =        -0.00000000
  eigenvalues    EBANDS =       -85.08741724
  atomic energy  EATOM  =       671.40793249
  Solvation  Ediel_sol  =         0.00000000
  ---------------------------------------------------
  free energy    TOTEN  =       -32.13537789 eV

  energy without entropy =      -32.13537789  energy(sigma->0) =      -32.13537789


--------------------------------------------------------------------------------------------------------




--------------------------------------- Iteration      1(   5)  ---------------------------------------


    POTLOK:  cpu time    0.0022: real time    0.0035
    SETDIJ:  cpu time    0.0023: real time    0.0023
     EDDAV:  cpu time    0.0375: real time    0.0378
       DOS:  cpu time    0.0001: real time    0.0001
    CHARGE:  cpu time    0.0020: real time    0.0020
    MIXING:  cpu time    0.0002: real time    0.0002
    --------------------------------------------
      LOOP:  cpu time    0.0443: real time    0.0459

 eigenvalue-minimisations  :   200
 total energy-change (2. order) : 0.8003005E-04  (-0.1213560E-03)
 number of electron      15.9999999 magnetization 
 augmentation part        0.5507520 magnetization 

 Broyden mixing:
  rms(total) = 0.16065E-01    rms(broyden)= 0.16064E-01
  rms(prec ) = 0.17702E-01
  weight for this iteration     100.00

 eigenvalues of (default mixing * dielectric matrix)
  average eigenvalue GAMMA=   1.7428
  0.9843  1.1348  2.3053  2.5469

 Free energy of the ion-electron system (eV)
  ---------------------------------------------------
  alpha Z        PSCENC =        34.59384069
  Ewald energy   TEWEN  =      -421.88703305
  -Hartree energ DENC   =      -286.95437851
  -exchange      EXHF   =         0.00000000
  -V(xc)+E(xc)   XCENC  =        57.04257019
  PAW double counting   =      1897.02531746    -1898.64225331
  entropy T*S    EENTRO =        -0.00000000
  eigenvalues    EBANDS =       -84.72129382
  atomic energy  EATOM  =       671.40793249
  Solvation  Ediel_sol  =         0.00000000
  ---------------------------------------------------
  free energy    TOTEN  =       -32.13529786 eV

  energy without entropy =      -32.13529786  energy(sigma->0) =      -32.13529786


--------------------------------------------------------------------------------------------------------




--------------------------------------- Iteration      1(   6)  ---------------------------------------


    POTLOK:  cpu time    0.0020: real time    0.0023
    SETDIJ:  cpu time    0.0023: real time    0.0023
     EDDAV:  cpu time    0.0476: real time    0.0479
       DOS:  cpu time    0.0002: real time    0.0002
    CHARGE:  cpu time    0.0021: real time    0.0022
    MIXING:  cpu time    0.0002: real time    0.0002
    --------------------------------------------
      LOOP:  cpu time    0.0544: real time    0.0551

 eigenvalue-minimisations  :   220
 total energy-change (2. order) :-0.1143240E-03  (-0.4507462E-04)
 number of electron      15.9999999 magnetization 
 augmentation part        0.5503675 magnetization 

 Broyden mixing:
  rms(total) = 0.26467E-02    rms(broyden)= 0.26456E-02
  rms(prec ) = 0.30977E-02
  weight for this iteration     100.00

 eigenvalues of (default mixing * dielectric matrix)
  average eigenvalue GAMMA=   1.7582
  2.7778  2.4556  1.0477  1.0477  1.4623

 Free energy of the ion-electron system (eV)
  ---------------------------------------------------
  alpha Z        PSCENC =        34.59384069
  Ewald energy   TEWEN  =      -421.88703305
  -Hartree energ DENC   =      -287.27021837
  -exchange      EXHF   =         0.00000000
  -V(xc)+E(xc)   XCENC  =        57.05765980
  PAW double counting   =      1886.87761772    -1888.49440530
  entropy T*S    EENTRO =        -0.00000000
  eigenvalues    EBANDS =       -84.42080616
  atomic energy  EATOM  =       671.40793249
  Solvation  Ediel_sol  =         0.00000000
  ---------------------------------------------------
  free energy    TOTEN  =       -32.13541218 eV

  energy without entropy =      -32.13541218  energy(sigma->0) =      -32.13541218


--------------------------------------------------------------------------------------------------------




--------------------------------------- Iteration      1(   7)  ---------------------------------------


    POTLOK:  cpu time    0.0020: real time    0.0022
    SETDIJ:  cpu time    0.0023: real time    0.0023
     EDDAV:  cpu time    0.0409: real time    0.0411
       DOS:  cpu time    0.0001: real time    0.0001
    --------------------------------------------
      LOOP:  cpu time    0.0454: real time    0.0459

 eigenvalue-minimisations  :   200
 total energy-change (2. order) :-0.2254306E-04  (-0.1608723E-05)
 number of electron      15.9999999 magnetization 
 augmentation part        0.5503675 magnetization 

 Free energy of the ion-electron system (eV)
  ---------------------------------------------------
  alpha Z        PSCENC =        34.59384069
  Ewald energy   TEWEN  =      -421.88703305
  -Hartree energ DENC   =      -287.29643020
  -exchange      EXHF   =         0.00000000
  -V(xc)+E(xc)   XCENC  =        57.05887399
  PAW double counting   =      1887.19003482    -1888.80614412
  entropy T*S    EENTRO =        -0.00000000
  eigenvalues    EBANDS =       -84.39650935
  atomic energy  EATOM  =       671.40793249
  Solvation  Ediel_sol  =         0.00000000
  ---------------------------------------------------
  free energy    TOTEN  =       -32.13543472 eV

  energy without entropy =      -32.13543472  energy(sigma->0) =      -32.13543472


--------------------------------------------------------------------------------------------------------




 average (electrostatic) potential at core
  the test charge radii are     0.7672  0.7089
  (the norm of the test charge is              1.0000)
       1 -29.9826       2 -29.9364       3 -65.1150       4 -65.0502
 
 
 
 E-fermi :   1.1952     XC(G=0):  -9.1478     alpha+bet : -9.6182


 k-point     1 :       0.0000    0.0000    0.0000
  band No.  band energies     occupation 
      1     -16.0364      2.00000
      2     -15.9132      2.00000
      3      -4.2215      2.00000
      4      -3.0591      2.00000
      5       0.3500      2.00000
      6       0.3501      2.00000
      7       0.4056      2.00000
      8       0.4056      2.00000
      9       6.0111      0.00000
     10      10.3476      0.00000
     11      12.7512      0.00000
     12      12.9756      0.00000
     13      12.9756      0.00000
     14      13.0309      0.00000
     15      13.0309      0.00000
     16      14.3574      0.00000
     17      15.5557      0.00000
     18      16.3317      0.00000
     19      19.6768      0.00000
     20      25.7414      0.00000

 k-point     2 :       0.5000    0.0000    0.0000
  band No.  band energies     occupation 
      1     -12.8861      2.00000
      2     -12.8247      2.00000
      3      -7.3039      2.00000
      4      -7.2304      2.00000
      5      -2.4771      2.00000
      6      -2.4200      2.00000
      7       0.5689      2.00000
      8       0.8886      2.00000
      9       5.9086      0.00000
     10       6.5768      0.00000
     11      11.0053      0.00000
     12      11.1901      0.00000
     13      13.7839      0.00000
     14      14.3449      0.00000
     15      16.1126      0.00000
     16      17.5896      0.00000
     17      19.9936      0.00000
     18      21.7244      0.00000
     19      22.4911      0.00000
     20      23.1358      0.00000

 k-point     3 :       0.0000    0.0000    0.3333
  band No.  band energies     occupation 
      1     -16.0137      2.00000
      2     -15.9371      2.00000
      3      -3.9666      2.00000
      4      -3.3900      2.00000
      5       0.3499      2.00000
      6       0.3499      2.00000
      7       0.4053      2.00000
      8       0.4053      2.00000
      9       6.8656      0.00000
     10       8.8567      0.00000
     11      12.9779      0.00000
     12      12.9779      0.00000
     13      13.0279      0.00000
     14      13.0279      0.00000
     15      13.5123      0.00000
     16      14.1515      0.00000
     17      15.6919      0.00000
     18      16.0400      0.00000
     19      21.1719      0.00000
     20      24.0861      0.00000

 k-point     4 :       0.5000    0.0000    0.3333
  band No.  band energies     occupation 
      1     -12.8838      2.00000
      2     -12.8271      2.00000
      3      -7.2964      2.00000
      4      -7.2395      2.00000
      5      -2.4758      2.00000
      6      -2.4213      2.00000
      7       0.6537      2.00000
      8       0.8216      2.00000
      9       6.0018      0.00000
     10       6.3312      0.00000
     11      11.1522      0.00000
     12      11.2392      0.00000
     13      14.2205      0.00000
     14      14.5699      0.00000
     15      15.8336      0.00000
     16      16.7710      0.00000
     17      19.9675      0.00000
     18      21.3336      0.00000
     19      23.1366      0.00000
     20      23.1944      0.00000


--------------------------------------------------------------------------------------------------------


 soft charge-density along one line, spin component           1
         0         1         2         3         4         5         6         7         8         9
 total charge-density along one line
 
 pseudopotential strength for first ion, spin component:           1
  6.444   9.811  -0.000  -0.000  -0.000  -0.000  -0.000  -0.000
  9.811  14.933  -0.000  -0.000  -0.000  -0.000  -0.000  -0.000
 -0.000  -0.000  -2.176  -0.000  -0.000  -3.702  -0.000  -0.000
 -0.000  -0.000  -0.000  -2.176  -0.000  -0.000  -3.698  -0.000
 -0.000  -0.000  -0.000  -0.000  -2.176  -0.000  -0.000  -3.702
 -0.000  -0.000  -3.702  -0.000  -0.000  -6.098  -0.000  -0.000
 -0.000  -0.000  -0.000  -3.698  -0.000  -0.000  -6.085  -0.000
 -0.000  -0.000  -0.000  -0.000  -3.702  -0.000  -0.000  -6.098
 total augmentation occupancy for first ion, spin component:           1
  4.122  -1.237   0.000   0.000   0.000   0.000   0.000   0.000
 -1.237   0.385   0.000   0.000   0.000   0.000   0.000   0.000
  0.000   0.000   4.847   0.000   0.000  -1.414   0.000   0.000
  0.000   0.000   0.000   1.411   0.000  -0.000  -0.339   0.000
  0.000   0.000   0.000   0.000   4.847   0.000   0.000  -1.414
  0.000   0.000  -1.414  -0.000   0.000   0.435  -0.000   0.000
  0.000   0.000   0.000  -0.339   0.000  -0.000   0.084   0.000
  0.000   0.000   0.000   0.000  -1.414   0.000   0.000   0.435


------------------------ aborting loop because EDIFF is reached ----------------------------------------


 


 total charge     
 
# of ion       s       p       d       tot
------------------------------------------
    1        0.686   1.449   0.000   2.135
    2        0.686   1.448   0.000   2.134
    3        1.184   2.883   0.000   4.067
    4        1.183   2.885   0.000   4.068
--------------------------------------------------
tot          3.740   8.666   0.000  12.405
 
    CHARGE:  cpu time    0.0020: real time    0.0020
    FORLOC:  cpu time    0.0001: real time    0.0001
    FORNL :  cpu time    0.0047: real time    0.0047
    STRESS:  cpu time    0.0215: real time    0.0218
    FORCOR:  cpu time    0.0018: real time    0.0019
    FORHAR:  cpu time    0.0006: real time    0.0006
    MIXING:  cpu time    0.0002: real time    0.0002
    OFIELD:  cpu time    0.0000: real time    0.0000

  FORCE on cell =-STRESS in cart. coord.  units (eV):
  Direction    XX          YY          ZZ          XY          YZ          ZX
  --------------------------------------------------------------------------------------
  Alpha Z    34.59384    34.59384    34.59384
  Ewald     121.29472   121.29472  -664.47690    -0.00000    -0.00000    -0.00000
  Hartree   226.69416   226.69416  -166.09722    -0.00000     0.00000     0.00000
  E(xc)     -63.62874   -63.62874   -65.33686    -0.00000     0.00000     0.00000
  Local    -547.38440  -547.38358   602.55772     0.00000     0.00000    -0.00011
  n-local   -34.56283   -34.41699   -33.61407     0.12636    -0.00000    -0.00000
  augment     2.12470     2.12455     2.56562     0.00000     0.00000    -0.00000
  Kinetic   262.88594   265.23163   289.61746     2.03093     0.00000     0.00001
  Fock        0.00000     0.00000     0.00000     0.00000     0.00000     0.00000
  -------------------------------------------------------------------------------------
  Total       3.26347     3.26347    -0.19040     0.00000     0.00000    -0.00000
  in kB     127.07670   127.07670    -7.41415     0.00000     0.00000    -0.00000
  external pressure =       82.25 kB  Pullay stress =        0.00 kB


 VOLUME and BASIS-vectors are now :
 -----------------------------------------------------------------------------
  energy-cutoff  :      500.00
  volume of cell :       41.15
      direct lattice vectors                 reciprocal lattice vectors
     1.256237318 -2.175866861  0.000000000     0.398013968 -0.229793472  0.000000000
     1.256237318  2.175866861  0.000000000     0.398013968  0.229793472  0.000000000
     0.000000000  0.000000000  7.526459174     0.000000000  0.000000000  0.132864602

  length of vectors
     2.512474636  2.512474636  7.526459174     0.459586943  0.459586943  0.132864602


 FORCES acting on ions
    electron-ion (+dipol)            ewald-force                    non-local-force                 convergence-correction
 -----------------------------------------------------------------------------------------------
   -.775E-13 -.140E-04 -.665E-15   0.466E-14 -.651E-11 -.139E-13   0.833E-16 0.555E-16 0.000E+00   -.126E-14 0.525E-07 0.465E-13
   0.669E-13 -.182E-04 -.248E-12   0.347E-14 0.130E-10 0.139E-13   -.833E-16 0.222E-15 0.000E+00   0.104E-14 0.562E-07 -.445E-13
   0.811E-14 -.697E-06 -.824E-12   -.352E-14 0.651E-11 -.231E-13   0.000E+00 -.278E-16 0.000E+00   0.146E-13 -.421E-07 0.926E-13
   0.585E-13 -.270E-05 -.362E-11   -.271E-14 -.130E-10 0.231E-13   0.139E-16 -.139E-16 0.000E+00   -.524E-14 -.470E-07 -.854E-13
 -----------------------------------------------------------------------------------------------
   0.560E-13 -.356E-04 -.470E-11   0.191E-14 0.202E-14 0.000E+00   0.139E-16 0.236E-15 0.000E+00   0.915E-14 0.197E-07 0.916E-14
 
 
 POSITION                                       TOTAL-FORCE (eV/Angst)
 -----------------------------------------------------------------------------------
      0.00000      0.00000      0.00000         0.000000     -0.000000      0.000000
      1.25624      0.72529      3.76323         0.000000      0.000000      0.000000
      1.25624      0.72529      0.00000         0.000000     -0.000000      0.000000
      1.25624     -0.72529      3.76323         0.000000     -0.000000      0.000000
 -----------------------------------------------------------------------------------
    total drift:                                0.000000     -0.000036     -0.000000


--------------------------------------------------------------------------------------------------------



  FREE ENERGIE OF THE ION-ELECTRON SYSTEM (eV)
  ---------------------------------------------------
  free  energy   TOTEN  =       -32.13543472 eV

  energy  without entropy=      -32.13543472  energy(sigma->0) =      -32.13543472
 


--------------------------------------------------------------------------------------------------------


    POTLOK:  cpu time    0.0045: real time    0.0046


--------------------------------------------------------------------------------------------------------


 writing wavefunctions
     LOOP+:  cpu time    0.4074: real time    0.4179
    4ORBIT:  cpu time    0.0000: real time    0.0000
 


 total charge     
 
# of ion       s       p       d       tot
------------------------------------------
    1        0.686   1.449   0.000   2.135
    2        0.686   1.448   0.000   2.134
    3        1.184   2.883   0.000   4.067
    4        1.183   2.885   0.000   4.068
--------------------------------------------------
tot          3.740   8.666   0.000  12.405
 

 total amount of memory used by VASP MPI-rank0    31853. kBytes
=======================================================================

   base      :      30000. kBytes
   nonl-proj :        610. kBytes
   fftplans  :        561. kBytes
   grid      :        600. kBytes
   one-center:         12. kBytes
   wavefun   :         70. kBytes
 
  
  
 General timing and accounting informations for this job:
 ========================================================
  
                  Total CPU time used (sec):        0.822
                            User time (sec):        0.579
                          System time (sec):        0.242
                         Elapsed time (sec):        1.303
  
                   Maximum memory used (kb):       68628.
                   Average memory used (kb):           0.
  
                          Minor page faults:         9812
                          Major page faults:            7
                 Voluntary context switches:         3747
