 vasp.5.4.4.18Apr17-6-g9f103f2a35 (build May 10 2019 17:57:18) complex          
  
 executed on             LinuxIFC date 2024.07.15  18:29:18
 running on   20 total cores
 distrk:  each k-point on   20 cores,    1 groups
 distr:  one band on NCORES_PER_BAND=   1 cores,   20 groups


--------------------------------------------------------------------------------------------------------


 INCAR:
 POTCAR:    PAW_PBE B 06Sep2000                   
 POTCAR:    PAW_PBE N 08Apr2002                   

 ----------------------------------------------------------------------------- 
|                                                                             |
|           W    W    AA    RRRRR   N    N  II  N    N   GGGG   !!!           |
|           W    W   A  A   R    R  NN   N  II  NN   N  G    G  !!!           |
|           W    W  A    A  R    R  N N  N  II  N N  N  G       !!!           |
|           W WW W  AAAAAA  RRRRR   N  N N  II  N  N N  G  GGG   !            |
|           WW  WW  A    A  R   R   N   NN  II  N   NN  G    G                |
|           W    W  A    A  R    R  N    N  II  N    N   GGGG   !!!           |
|                                                                             |
|      For optimal performance we recommend to set                            |
|        NCORE= 4 - approx SQRT( number of cores)                             |
|      NCORE specifies how many cores store one orbital (NPAR=cpu/NCORE).     |
|      This setting can  greatly improve the performance of VASP for DFT.     |
|      The default,   NCORE=1            might be grossly inefficient         |
|      on modern multi-core architectures or massively parallel machines.     |
|      Do your own testing !!!!                                               |
|      Unfortunately you need to use the default for GW and RPA calculations. |
|      (for HF NCORE is supported but not extensively tested yet)             |
|                                                                             |
 ----------------------------------------------------------------------------- 

 POTCAR:    PAW_PBE B 06Sep2000                   
   SHA256 =  a32ced30f5ae56fd4d10b4325ff17eb3e4e38ee0f4288bc219fb012fddfa6e97 B/
   COPYR  = (c) Copyright 06Sep2000 Georg Kresse                                
   COPYR  = This file is part of the software VASP. Any use, copying, and all ot
   COPYR  = If you do not have a valid VASP license, you may not use, copy or di
   VRHFIN =B: s2p1                                                              
   LEXCH  = PE                                                                  
   EATOM  =    71.1703 eV,    5.2309 Ry                                         
                                                                                
   TITEL  = PAW_PBE B 06Sep2000                                                 
   LULTRA =        F    use ultrasoft PP ?                                      
   IUNSCR =        1    unscreen: 0-lin 1-nonlin 2-no                           
   RPACOR =    1.200    partial core radius                                     
   POMASS =   10.811; ZVAL   =    3.000    mass and valenz                      
   RCORE  =    1.700    outmost cutoff radius                                   
   RWIGS  =    1.710; RWIGS  =    0.905    wigner-seitz radius (au A)           
   ENMAX  =  318.614; ENMIN  =  238.960 eV                                      
   ICORE  =        2    local potential                                         
   LCOR   =        T    correct aug charges                                     
   LPAW   =        T    paw PP                                                  
   EAUG   =  535.514                                                            
   DEXC   =    0.000                                                            
   RMAX   =    1.732    core radius for proj-oper                               
   RAUG   =    1.300    factor for augmentation sphere                          
   RDEP   =    1.757    radius for radial grids                                 
   RDEPT  =    1.436    core radius for aug-charge                              
                                                                                
   Atomic configuration                                                         
    4 entries                                                                   
     n  l   j            E        occ.                                          
     1  0  0.50      -180.5896   2.0000                                         
     2  0  0.50        -9.4431   2.0000                                         
     2  1  0.50        -3.6068   1.0000                                         
     3  2  1.50        -4.0817   0.0000                                         
   Description                                                                  
     l       E           TYP  RCUT    TYP  RCUT                                 
     0     -9.4430752     23  1.500                                             
     0      0.8675899     23  1.500                                             
     1     -3.6067955     23  1.700                                             
     1      6.1086146     23  1.700                                             
     2     -4.0817478      7  1.700                                             
  local pseudopotential read in
  partial core-charges read in
  partial kinetic energy density read in
  atomic valenz-charges read in
  non local Contribution for L=           0  read in
    real space projection operators read in
  non local Contribution for L=           0  read in
    real space projection operators read in
  non local Contribution for L=           1  read in
    real space projection operators read in
  non local Contribution for L=           1  read in
    real space projection operators read in
    PAW grid and wavefunctions read in
 
   number of l-projection  operators is LMAX  =           4
   number of lm-projection operators is LMMAX =           8
 
 POTCAR:    PAW_PBE N 08Apr2002                   
   SHA256 =  e053789ff3a61a86a1b75d8a110fcc91f86041011e7b0817c7c99e4e8a6349d7 N/
   COPYR  = (c) Copyright 08Apr2002 Georg Kresse                                
   COPYR  = This file is part of the software VASP. Any use, copying, and all ot
   COPYR  = If you do not have a valid VASP license, you may not use, copy or di
   VRHFIN =N: s2p3                                                              
   LEXCH  = PE                                                                  
   EATOM  =   264.5486 eV,   19.4438 Ry                                         
                                                                                
   TITEL  = PAW_PBE N 08Apr2002                                                 
   LULTRA =        F    use ultrasoft PP ?                                      
   IUNSCR =        1    unscreen: 0-lin 1-nonlin 2-no                           
   RPACOR =    1.200    partial core radius                                     
   POMASS =   14.001; ZVAL   =    5.000    mass and valenz                      
   RCORE  =    1.500    outmost cutoff radius                                   
   RWIGS  =    1.400; RWIGS  =    0.741    wigner-seitz radius (au A)           
   ENMAX  =  400.000; ENMIN  =  300.000 eV                                      
   ICORE  =        2    local potential                                         
   LCOR   =        T    correct aug charges                                     
   LPAW   =        T    paw PP                                                  
   EAUG   =  627.112                                                            
   DEXC   =    0.000                                                            
   RMAX   =    1.529    core radius for proj-oper                               
   RAUG   =    1.300    factor for augmentation sphere                          
   RDEP   =    1.514    radius for radial grids                                 
   RDEPT  =    1.338    core radius for aug-charge                              
                                                                                
   Atomic configuration                                                         
    4 entries                                                                   
     n  l   j            E        occ.                                          
     1  0  0.50      -384.7179   2.0000                                         
     2  0  0.50       -18.5828   2.0000                                         
     2  1  0.50        -7.0898   3.0000                                         
     3  2  1.50        -6.8029   0.0000                                         
   Description                                                                  
     l       E           TYP  RCUT    TYP  RCUT                                 
     0    -18.5828119     23  1.200                                             
     0    -13.5018863     23  1.200                                             
     1     -7.0897853     23  1.500                                             
     1      9.5240782     23  1.500                                             
     2     -6.8029130      7  1.500                                             
  local pseudopotential read in
  partial core-charges read in
  partial kinetic energy density read in
  atomic valenz-charges read in
  non local Contribution for L=           0  read in
    real space projection operators read in
  non local Contribution for L=           0  read in
    real space projection operators read in
  non local Contribution for L=           1  read in
    real space projection operators read in
  non local Contribution for L=           1  read in
    real space projection operators read in
    PAW grid and wavefunctions read in
 
   number of l-projection  operators is LMAX  =           4
   number of lm-projection operators is LMMAX =           8
 
  PAW_PBE B 06Sep2000                   :
 energy of atom  1       EATOM=  -71.1703
 kinetic energy error for atom=    0.0012 (will be added to EATOM!!)
  PAW_PBE N 08Apr2002                   :
 energy of atom  2       EATOM= -264.5486
 kinetic energy error for atom=    0.0138 (will be added to EATOM!!)
 
 
 POSCAR: B2 N2                                   
  positions in direct lattice
  velocities in cartesian coordinates
 exchange correlation table for  LEXCH =        8
   RHO(1)=    0.500       N(1)  =     2000
   RHO(2)=  100.500       N(2)  =     4000
 


--------------------------------------------------------------------------------------------------------


 ion  position               nearest neighbor table
   1  0.000  0.000  0.000-   3 1.45   3 1.45   3 1.45
   2  0.333  0.667  0.500-   4 1.45   4 1.45   4 1.45
   3  0.333  0.667  0.000-   1 1.45   1 1.45   1 1.45
   4  0.667  0.333  0.500-   2 1.45   2 1.45   2 1.45
 
  LATTYP: Found a hexagonal cell.
 ALAT       =     2.5124746362
 C/A-ratio  =     2.9956358826
  
  Lattice vectors:
  
 A1 = (   1.2562373181,  -2.1758668613,   0.0000000000)
 A2 = (   1.2562373181,   2.1758668613,   0.0000000000)
 A3 = (   0.0000000000,   0.0000000000,   7.5264591742)


Analysis of symmetry for initial positions (statically):
=====================================================================
 Subroutine PRICEL returns:
 Original cell was already a primitive cell.
 

 Routine SETGRP: Setting up the symmetry group for a 
 hexagonal supercell.


 Subroutine GETGRP returns: Found 12 space group operations
 (whereof 12 operations were pure point group operations)
 out of a pool of 24 trial point group operations.


The static configuration has the point symmetry D_3h.


Analysis of symmetry for dynamics (positions and initial velocities):
=====================================================================
 Subroutine PRICEL returns:
 Original cell was already a primitive cell.
 

 Routine SETGRP: Setting up the symmetry group for a 
 hexagonal supercell.


 Subroutine GETGRP returns: Found 12 space group operations
 (whereof 12 operations were pure point group operations)
 out of a pool of 24 trial point group operations.


The dynamic configuration has the point symmetry D_3h.


 Subroutine INISYM returns: Found 12 space group operations
 (whereof 12 operations are pure point group operations),
 and found     1 'primitive' translations

 
 
 KPOINTS: A                                       

Automatic generation of k-mesh.
Space group operators:
 irot       det(A)        alpha          n_x          n_y          n_z        tau_x        tau_y        tau_z
    1     1.000000     0.000000     1.000000     0.000000     0.000000     0.000000     0.000000     0.000000
    2    -1.000000    60.000000     0.000000     0.000000    -1.000000     0.000000     0.000000     0.000000
    3     1.000000   120.000000     0.000000     0.000000    -1.000000     0.000000     0.000000     0.000000
    4    -1.000000   180.000000     0.000000     0.000000     1.000000     0.000000     0.000000     0.000000
    5     1.000000   120.000000     0.000000     0.000000     1.000000     0.000000     0.000000     0.000000
    6    -1.000000    60.000000     0.000000     0.000000     1.000000     0.000000     0.000000     0.000000
    7    -1.000000   180.000000     0.500000    -0.866025     0.000000     0.000000     0.000000     0.000000
    8     1.000000   180.000000     0.000000     1.000000     0.000000     0.000000     0.000000     0.000000
    9    -1.000000   180.000000    -0.500000    -0.866025     0.000000     0.000000     0.000000     0.000000
   10     1.000000   180.000000     0.866025     0.500000     0.000000     0.000000     0.000000     0.000000
   11    -1.000000   180.000000     1.000000     0.000000     0.000000     0.000000     0.000000     0.000000
   12     1.000000   180.000000     0.866025    -0.500000     0.000000     0.000000     0.000000     0.000000
 
 Subroutine IBZKPT returns following result:
 ===========================================
 
 Found      8 irreducible k-points:
 
 Following reciprocal coordinates:
            Coordinates               Weight
  0.000000  0.000000  0.000000      1.000000
  0.250000  0.000000  0.000000      6.000000
  0.500000  0.000000  0.000000      3.000000
  0.250000  0.250000  0.000000      6.000000
  0.000000  0.000000  0.333333      2.000000
  0.250000  0.000000  0.333333     12.000000
  0.500000  0.000000  0.333333      6.000000
  0.250000  0.250000  0.333333     12.000000
 
 Following cartesian coordinates:
            Coordinates               Weight
  0.000000  0.000000  0.000000      1.000000
  0.099503 -0.057448  0.000000      6.000000
  0.199007 -0.114897  0.000000      3.000000
  0.199007  0.000000  0.000000      6.000000
  0.000000  0.000000  0.044288      2.000000
  0.099503 -0.057448  0.044288     12.000000
  0.199007 -0.114897  0.044288      6.000000
  0.199007  0.000000  0.044288     12.000000
 


--------------------------------------------------------------------------------------------------------




 Dimension of arrays:
   k-points           NKPTS =      8   k-points in BZ     NKDIM =      8   number of bands    NBANDS=     20
   number of dos      NEDOS =    301   number of ions     NIONS =      4
   non local maximal  LDIM  =      4   non local SUM 2l+1 LMDIM =      8
   total plane-waves  NPLWV =   8232
   max r-space proj   IRMAX =      1   max aug-charges    IRDMAX=  25156
   dimension x,y,z NGX =    14 NGY =   14 NGZ =   42
   dimension x,y,z NGXF=    28 NGYF=   28 NGZF=   84
   support grid    NGXF=    56 NGYF=   56 NGZF=  168
   ions per type =               2   2
   NGX,Y,Z   is equivalent  to a cutoff of   9.26,  9.26,  9.28 a.u.
   NGXF,Y,Z  is equivalent  to a cutoff of  18.53, 18.53, 18.55 a.u.

 SYSTEM =  BN                                      
 POSCAR =  B2 N2                                   

 Startparameter for this run:
   NWRITE =      2    write-flag & timer
   PREC   = normal    normal or accurate (medium, high low for compatibility)
   ISTART =      1    job   : 0-new  1-cont  2-samecut
   ICHARG =      0    charge: 1-file 2-atom 10-const
   ISPIN  =      1    spin polarized calculation?
   LNONCOLLINEAR =      F non collinear calculations
   LSORBIT =      F    spin-orbit coupling
   INIWAV =      1    electr: 0-lowe 1-rand  2-diag
   LASPH  =      F    aspherical Exc in radial PAW
   METAGGA=      F    non-selfconsistent MetaGGA calc.

 Electronic Relaxation 1
   ENCUT  =  500.0 eV  36.75 Ry    6.06 a.u.   4.58  4.58 13.72*2*pi/ulx,y,z
   ENINI  =  500.0     initial cutoff
   ENAUG  =  627.1 eV  augmentation charge cutoff
   NELM   =     60;   NELMIN=  2; NELMDL=  0     # of ELM steps 
   EDIFF  = 0.1E-03   stopping-criterion for ELM
   LREAL  =      F    real-space projection
   NLSPLINE    = F    spline interpolate recip. space projectors
   LCOMPAT=      F    compatible to vasp.4.4
   GGA_COMPAT  = T    GGA compatible to vasp.4.4-vasp.4.6
   LMAXPAW     = -100 max onsite density
   LMAXMIX     =    2 max onsite mixed and CHGCAR
   VOSKOWN=      0    Vosko Wilk Nusair interpolation
   ROPT   =    0.00000   0.00000
 Ionic relaxation
   EDIFFG = 0.1E-02   stopping-criterion for IOM
   NSW    =      0    number of steps for IOM
   NBLOCK =      1;   KBLOCK =      1    inner block; outer block 
   IBRION =     -1    ionic relax: 0-MD 1-quasi-New 2-CG
   NFREE  =      0    steps in history (QN), initial steepest desc. (CG)
   ISIF   =      2    stress and relaxation
   IWAVPR =     10    prediction:  0-non 1-charg 2-wave 3-comb
   ISYM   =      2    0-nonsym 1-usesym 2-fastsym
   LCORR  =      T    Harris-Foulkes like correction to forces

   POTIM  = 0.5000    time-step for ionic-motion
   TEIN   =    0.0    initial temperature
   TEBEG  =    0.0;   TEEND  =   0.0 temperature during run
   SMASS  =  -3.00    Nose mass-parameter (am)
   estimated Nose-frequenzy (Omega)   =  0.10E-29 period in steps =****** mass=  -0.144E-27a.u.
   SCALEE = 1.0000    scale energy and forces
   NPACO  =    256;   APACO  = 16.0  distance and # of slots for P.C.
   PSTRESS=    0.0 pullay stress

  Mass of Ions in am
   POMASS =  10.81 14.00
  Ionic Valenz
   ZVAL   =   3.00  5.00
  Atomic Wigner-Seitz radii
   RWIGS  =  -1.00 -1.00
  virtual crystal weights 
   VCA    =   1.00  1.00
   NELECT =      16.0000    total number of electrons
   NUPDOWN=      -1.0000    fix difference up-down

 DOS related values:
   EMIN   =  10.00;   EMAX   =-10.00  energy-range for DOS
   EFERMI =   0.00
   ISMEAR =     0;   SIGMA  =   0.05  broadening in eV -4-tet -1-fermi 0-gaus

 Electronic relaxation 2 (details)
   IALGO  =     38    algorithm
   LDIAG  =      T    sub-space diagonalisation (order eigenvalues)
   LSUBROT=      F    optimize rotation matrix (better conditioning)
   TURBO    =      0    0=normal 1=particle mesh
   IRESTART =      0    0=no restart 2=restart with 2 vectors
   NREBOOT  =      0    no. of reboots
   NMIN     =      0    reboot dimension
   EREF     =   0.00    reference energy to select bands
   IMIX   =      4    mixing-type and parameters
     AMIX     =   0.40;   BMIX     =  1.00
     AMIX_MAG =   1.60;   BMIX_MAG =  1.00
     AMIN     =   0.10
     WC   =   100.;   INIMIX=   1;  MIXPRE=   1;  MAXMIX= -45

 Intra band minimization:
   WEIMIN = 0.0000     energy-eigenvalue tresh-hold
   EBREAK =  0.13E-05  absolut break condition
   DEPER  =   0.30     relativ break condition  

   TIME   =   0.40     timestep for ELM

  volume/ion in A,a.u.               =      10.29        69.42
  Fermi-wavevector in a.u.,A,eV,Ry     =   1.194923  2.258077 19.426956  1.427841
  Thomas-Fermi vector in A             =   2.330901
 
 Write flags
   LWAVE        =      T    write WAVECAR
   LDOWNSAMPLE  =      F    k-point downsampling of WAVECAR
   LCHARG       =      T    write CHGCAR
   LVTOT        =      F    write LOCPOT, total local potential
   LVHAR        =      F    write LOCPOT, Hartree potential only
   LELF         =      F    write electronic localiz. function (ELF)
   LORBIT       =     11    0 simple, 1 ext, 2 COOP (PROOUT), +10 PAW based schemes


 Dipole corrections
   LMONO  =      F    monopole corrections only (constant potential shift)
   LDIPOL =      F    correct potential (dipole corrections)
   IDIPOL =      0    1-x, 2-y, 3-z, 4-all directions 
   EPSILON=  1.0000000 bulk dielectric constant

 Exchange correlation treatment:
   GGA     =    --    GGA type
   LEXCH   =     8    internal setting for exchange type
   VOSKOWN=      0    Vosko Wilk Nusair interpolation
   LHFCALC =     F    Hartree Fock is set to
   LHFONE  =     F    Hartree Fock one center treatment
   AEXX    =    0.0000 exact exchange contribution

 Linear response parameters
   LEPSILON=     F    determine dielectric tensor
   LRPA    =     F    only Hartree local field effects (RPA)
   LNABLA  =     F    use nabla operator in PAW spheres
   LVEL    =     F    velocity operator in full k-point grid
   LINTERFAST=   F  fast interpolation
   KINTER  =     0    interpolate to denser k-point grid
   CSHIFT  =0.1000    complex shift for real part using Kramers Kronig
   OMEGAMAX=  -1.0    maximum frequency
   DEG_THRESHOLD= 0.2000000E-02 threshold for treating states as degnerate
   RTIME   =   -0.100 relaxation time in fs
  (WPLASMAI=    0.000 imaginary part of plasma frequency in eV, 0.658/RTIME)
   DFIELD  = 0.0000000 0.0000000 0.0000000 field for delta impulse in time
 
 Orbital magnetization related:
   ORBITALMAG=     F  switch on orbital magnetization
   LCHIMAG   =     F  perturbation theory with respect to B field
   DQ        =  0.001000  dq finite difference perturbation B field
   LLRAUG    =     F  two centre corrections for induced B field



--------------------------------------------------------------------------------------------------------


 Static calculation
 charge density and potential will be updated during run
 non-spin polarized calculation
 Variant of blocked Davidson
 Davidson routine will perform the subspace rotation
 perform sub-space diagonalisation
    after iterative eigenvector-optimisation
 modified Broyden-mixing scheme, WC =      100.0
 initial mixing is a Kerker type mixing with AMIX =  0.4000 and BMIX =      1.0000
 Hartree-type preconditioning will be used
 using additional bands           12
 reciprocal scheme for non local part
 use partial core corrections
 calculate Harris-corrections to forces 
   (improved forces if not selfconsistent)
 use gradient corrections 
 use of overlap-Matrix (Vanderbilt PP)
 Gauss-broadening in eV      SIGMA  =   0.05


--------------------------------------------------------------------------------------------------------


  energy-cutoff  :      500.00
  volume of cell :       41.15
      direct lattice vectors                 reciprocal lattice vectors
     1.256237318 -2.175866861  0.000000000     0.398013968 -0.229793472  0.000000000
     1.256237318  2.175866861  0.000000000     0.398013968  0.229793472  0.000000000
     0.000000000  0.000000000  7.526459174     0.000000000  0.000000000  0.132864602

  length of vectors
     2.512474636  2.512474636  7.526459174     0.459586943  0.459586943  0.132864602


 
 old parameters found on file WAVECAR:
  energy-cutoff  :      500.00
  volume of cell :       41.15
      direct lattice vectors                 reciprocal lattice vectors
     1.256237318 -2.175866861  0.000000000     0.398013968 -0.229793472  0.000000000
     1.256237318  2.175866861  0.000000000     0.398013968  0.229793472  0.000000000
     0.000000000  0.000000000  7.526459174     0.000000000  0.000000000  0.132864602

  length of vectors

 
 k-points in units of 2pi/SCALE and weight: A                                       
   0.00000000  0.00000000  0.00000000       0.021
   0.09950349 -0.05744837  0.00000000       0.125
   0.19900698 -0.11489674  0.00000000       0.062
   0.19900698  0.00000000  0.00000000       0.125
   0.00000000  0.00000000  0.04428820       0.042
   0.09950349 -0.05744837  0.04428820       0.250
   0.19900698 -0.11489674  0.04428820       0.125
   0.19900698  0.00000000  0.04428820       0.250
 
 k-points in reciprocal lattice and weights: A                                       
   0.00000000  0.00000000  0.00000000       0.021
   0.25000000  0.00000000  0.00000000       0.125
   0.50000000  0.00000000  0.00000000       0.062
   0.25000000  0.25000000  0.00000000       0.125
   0.00000000  0.00000000  0.33333333       0.042
   0.25000000  0.00000000  0.33333333       0.250
   0.50000000  0.00000000  0.33333333       0.125
   0.25000000  0.25000000  0.33333333       0.250
 
 position of ions in fractional coordinates (direct lattice) 
   0.00000000  0.00000000  0.00000000
   0.33333333  0.66666667  0.50000000
   0.33333333  0.66666667  0.00000000
   0.66666667  0.33333333  0.50000000
 
 position of ions in cartesian coordinates  (Angst):
   0.00000000  0.00000000  0.00000000
   1.25623732  0.72528895  3.76322959
   1.25623732  0.72528895  0.00000000
   1.25623732 -0.72528895  3.76322959
 


--------------------------------------------------------------------------------------------------------


 k-point  1 :   0.0000 0.0000 0.0000  plane waves:    1041
 k-point  2 :   0.2500 0.0000 0.0000  plane waves:    1062
 k-point  3 :   0.5000 0.0000 0.0000  plane waves:    1032
 k-point  4 :   0.2500 0.2500 0.0000  plane waves:    1025
 k-point  5 :   0.0000 0.0000 0.3333  plane waves:    1054
 k-point  6 :   0.2500 0.0000 0.3333  plane waves:    1056
 k-point  7 :   0.5000 0.0000 0.3333  plane waves:    1038
 k-point  8 :   0.2500 0.2500 0.3333  plane waves:    1037

 maximum and minimum number of plane-waves per node :      1062     1025

 maximum number of plane-waves:      1062
 maximum index in each direction: 
   IXMAX=    4   IYMAX=    4   IZMAX=   13
   IXMIN=   -5   IYMIN=   -4   IZMIN=  -14


 serial   3D FFT for wavefunctions
 parallel 3D FFT for charge:
    minimum data exchange during FFTs selected (reduces bandwidth)


 total amount of memory used by VASP MPI-rank0    32491. kBytes
=======================================================================

   base      :      30000. kBytes
   nonl-proj :       1175. kBytes
   fftplans  :        561. kBytes
   grid      :        600. kBytes
   one-center:         12. kBytes
   wavefun   :        143. kBytes
 
     INWAV:  cpu time    0.0325: real time    0.0328
 Broyden mixing: mesh for mixing (old mesh)
   NGX =  9   NGY =  9   NGZ = 27
  (NGX  = 28   NGY  = 28   NGZ  = 84)
  gives a total of   2187 points

 charge density for first step will be calculated from the start-wavefunctions


--------------------------------------------------------------------------------------------------------


 Maximum index for augmentation-charges         1246 (set IRDMAX)


--------------------------------------------------------------------------------------------------------


 initial charge from wavefunction
 First call to EWALD:  gamma=   0.513
 Maximum number of real-space cells 4x 4x 2
 Maximum number of reciprocal cells 2x 2x 5

    FEWALD:  cpu time    0.0016: real time    0.0016


--------------------------------------- Iteration      1(   1)  ---------------------------------------


    POTLOK:  cpu time    0.0032: real time    0.0043
    SETDIJ:  cpu time    0.0026: real time    0.0027
     EDDAV:  cpu time    0.0379: real time    0.0382
       DOS:  cpu time    0.0003: real time    0.0004
    CHARGE:  cpu time    0.0022: real time    0.0022
    MIXING:  cpu time    0.0004: real time    0.0004
    --------------------------------------------
      LOOP:  cpu time    0.0467: real time    0.0482

 eigenvalue-minimisations  :   340
 total energy-change (2. order) :-0.3559463E+02  (-0.4317105E+02)
 number of electron      15.9999999 magnetization 
 augmentation part        0.4146072 magnetization 

 Broyden mixing:
  rms(total) = 0.17319E+01    rms(broyden)= 0.17315E+01
  rms(prec ) = 0.18403E+01
  weight for this iteration     100.00

 Free energy of the ion-electron system (eV)
  ---------------------------------------------------
  alpha Z        PSCENC =        34.59384069
  Ewald energy   TEWEN  =      -421.88703305
  -Hartree energ DENC   =      -294.21526349
  -exchange      EXHF   =         0.00000000
  -V(xc)+E(xc)   XCENC  =        57.53519990
  PAW double counting   =      3465.81736054    -3467.38599567
  entropy T*S    EENTRO =        -0.00000000
  eigenvalues    EBANDS =       -81.46067531
  atomic energy  EATOM  =       671.40793249
  Solvation  Ediel_sol  =         0.00000000
  ---------------------------------------------------
  free energy    TOTEN  =       -35.59463389 eV

  energy without entropy =      -35.59463389  energy(sigma->0) =      -35.59463389


--------------------------------------------------------------------------------------------------------




--------------------------------------- Iteration      1(   2)  ---------------------------------------


    POTLOK:  cpu time    0.0022: real time    0.0022
    SETDIJ:  cpu time    0.0024: real time    0.0024
     EDDAV:  cpu time    0.0591: real time    0.0595
       DOS:  cpu time    0.0002: real time    0.0002
    CHARGE:  cpu time    0.0027: real time    0.0027
    MIXING:  cpu time    0.0002: real time    0.0002
    --------------------------------------------
      LOOP:  cpu time    0.0668: real time    0.0673

 eigenvalue-minimisations  :   360
 total energy-change (2. order) : 0.4316412E+00  (-0.7232755E+00)
 number of electron      15.9999999 magnetization 
 augmentation part        0.4735342 magnetization 

 Broyden mixing:
  rms(total) = 0.13439E+01    rms(broyden)= 0.13439E+01
  rms(prec ) = 0.13481E+01
  weight for this iteration     100.00

 eigenvalues of (default mixing * dielectric matrix)
  average eigenvalue GAMMA=   2.1297
  2.1297

 Free energy of the ion-electron system (eV)
  ---------------------------------------------------
  alpha Z        PSCENC =        34.59384069
  Ewald energy   TEWEN  =      -421.88703305
  -Hartree energ DENC   =      -282.36532241
  -exchange      EXHF   =         0.00000000
  -V(xc)+E(xc)   XCENC  =        56.72347053
  PAW double counting   =      2863.31949192    -2864.78579745
  entropy T*S    EENTRO =        -0.00000000
  eigenvalues    EBANDS =       -92.16957538
  atomic energy  EATOM  =       671.40793249
  Solvation  Ediel_sol  =         0.00000000
  ---------------------------------------------------
  free energy    TOTEN  =       -35.16299266 eV

  energy without entropy =      -35.16299266  energy(sigma->0) =      -35.16299266


--------------------------------------------------------------------------------------------------------




--------------------------------------- Iteration      1(   3)  ---------------------------------------


    POTLOK:  cpu time    0.0021: real time    0.0022
    SETDIJ:  cpu time    0.0023: real time    0.0023
     EDDAV:  cpu time    0.1181: real time    0.1188
       DOS:  cpu time    0.0002: real time    0.0002
    CHARGE:  cpu time    0.0027: real time    0.0028
    MIXING:  cpu time    0.0002: real time    0.0002
    --------------------------------------------
      LOOP:  cpu time    0.1257: real time    0.1265

 eigenvalue-minimisations  :   500
 total energy-change (2. order) : 0.2274570E-02  (-0.1055732E-01)
 number of electron      15.9999999 magnetization 
 augmentation part        0.4758300 magnetization 

 Broyden mixing:
  rms(total) = 0.51196E+00    rms(broyden)= 0.51195E+00
  rms(prec ) = 0.51362E+00
  weight for this iteration     100.00

 eigenvalues of (default mixing * dielectric matrix)
  average eigenvalue GAMMA=   1.7694
  1.0515  2.4872

 Free energy of the ion-electron system (eV)
  ---------------------------------------------------
  alpha Z        PSCENC =        34.59384069
  Ewald energy   TEWEN  =      -421.88703305
  -Hartree energ DENC   =      -281.82634368
  -exchange      EXHF   =         0.00000000
  -V(xc)+E(xc)   XCENC  =        56.68351241
  PAW double counting   =      2187.48995552    -2188.95866823
  entropy T*S    EENTRO =        -0.00000000
  eigenvalues    EBANDS =       -92.66391424
  atomic energy  EATOM  =       671.40793249
  Solvation  Ediel_sol  =         0.00000000
  ---------------------------------------------------
  free energy    TOTEN  =       -35.16071809 eV

  energy without entropy =      -35.16071809  energy(sigma->0) =      -35.16071809


--------------------------------------------------------------------------------------------------------




--------------------------------------- Iteration      1(   4)  ---------------------------------------


    POTLOK:  cpu time    0.0022: real time    0.0022
    SETDIJ:  cpu time    0.0023: real time    0.0033
     EDDAV:  cpu time    0.0445: real time    0.0449
       DOS:  cpu time    0.0002: real time    0.0002
    CHARGE:  cpu time    0.0025: real time    0.0025
    MIXING:  cpu time    0.0002: real time    0.0002
    --------------------------------------------
      LOOP:  cpu time    0.0519: real time    0.0532

 eigenvalue-minimisations  :   380
 total energy-change (2. order) : 0.7288604E-03  (-0.8724266E-03)
 number of electron      15.9999999 magnetization 
 augmentation part        0.4725856 magnetization 

 Broyden mixing:
  rms(total) = 0.97408E-02    rms(broyden)= 0.97377E-02
  rms(prec ) = 0.13281E-01
  weight for this iteration     100.00

 eigenvalues of (default mixing * dielectric matrix)
  average eigenvalue GAMMA=   1.6267
  2.5446  1.0769  1.2587

 Free energy of the ion-electron system (eV)
  ---------------------------------------------------
  alpha Z        PSCENC =        34.59384069
  Ewald energy   TEWEN  =      -421.88703305
  -Hartree energ DENC   =      -282.00086602
  -exchange      EXHF   =         0.00000000
  -V(xc)+E(xc)   XCENC  =        56.70277057
  PAW double counting   =      1853.77782543    -1855.24892036
  entropy T*S    EENTRO =        -0.00000000
  eigenvalues    EBANDS =       -92.50553900
  atomic energy  EATOM  =       671.40793249
  Solvation  Ediel_sol  =         0.00000000
  ---------------------------------------------------
  free energy    TOTEN  =       -35.15998923 eV

  energy without entropy =      -35.15998923  energy(sigma->0) =      -35.15998923


--------------------------------------------------------------------------------------------------------




--------------------------------------- Iteration      1(   5)  ---------------------------------------


    POTLOK:  cpu time    0.0021: real time    0.0021
    SETDIJ:  cpu time    0.0023: real time    0.0023
     EDDAV:  cpu time    0.1054: real time    0.1062
       DOS:  cpu time    0.0002: real time    0.0002
    --------------------------------------------
      LOOP:  cpu time    0.1099: real time    0.1108

 eigenvalue-minimisations  :   480
 total energy-change (2. order) : 0.4962896E-04  (-0.8093925E-04)
 number of electron      15.9999999 magnetization 
 augmentation part        0.4725856 magnetization 

 Free energy of the ion-electron system (eV)
  ---------------------------------------------------
  alpha Z        PSCENC =        34.59384069
  Ewald energy   TEWEN  =      -421.88703305
  -Hartree energ DENC   =      -281.68609176
  -exchange      EXHF   =         0.00000000
  -V(xc)+E(xc)   XCENC  =        56.68504506
  PAW double counting   =      1847.46435298    -1848.93071948
  entropy T*S    EENTRO =        -0.00000000
  eigenvalues    EBANDS =       -92.80726654
  atomic energy  EATOM  =       671.40793249
  Solvation  Ediel_sol  =         0.00000000
  ---------------------------------------------------
  free energy    TOTEN  =       -35.15993960 eV

  energy without entropy =      -35.15993960  energy(sigma->0) =      -35.15993960


--------------------------------------------------------------------------------------------------------




 average (electrostatic) potential at core
  the test charge radii are     0.7672  0.7089
  (the norm of the test charge is              1.0000)
       1 -30.0022       2 -29.9677       3 -65.9283       4 -65.8883
 
 
 
 E-fermi :   0.8102     XC(G=0):  -9.2253     alpha+bet : -9.6182


 k-point     1 :       0.0000    0.0000    0.0000
  band No.  band energies     occupation 
      1     -16.3573      2.00000
      2     -16.2455      2.00000
      3      -4.4272      2.00000
      4      -3.3210      2.00000
      5      -0.0526      2.00000
      6      -0.0525      2.00000
      7      -0.0148      2.00000
      8      -0.0147      2.00000
      9       5.9647      0.00000
     10      10.1229      0.00000
     11      12.4744      0.00000
     12      12.8083      0.00000
     13      12.8083      0.00000
     14      12.8520      0.00000
     15      12.8520      0.00000
     16      14.0091      0.00000
     17      15.3072      0.00000
     18      16.1868      0.00000
     19      19.5859      0.00000
     20      25.6383      0.00000

 k-point     2 :       0.2500    0.0000    0.0000
  band No.  band energies     occupation 
      1     -15.2043      2.00000
      2     -15.1091      2.00000
      3      -3.7964      2.00000
      4      -3.7498      2.00000
      5      -2.8263      2.00000
      6      -1.8454      2.00000
      7      -1.6540      2.00000
      8      -1.6139      2.00000
      9       7.8463      0.00000
     10       9.5462      0.00000
     11      10.6220      0.00000
     12      11.7524      0.00000
     13      12.3841      0.00000
     14      14.4583      0.00000
     15      15.5429      0.00000
     16      17.2322      0.00000
     17      17.2852      0.00000
     18      18.1639      0.00000
     19      21.1065      0.00000
     20      21.2204      0.00000

 k-point     3 :       0.5000    0.0000    0.0000
  band No.  band energies     occupation 
      1     -13.2666      2.00000
      2     -13.2214      2.00000
      3      -7.5677      2.00000
      4      -7.5058      2.00000
      5      -2.8227      2.00000
      6      -2.7814      2.00000
      7       0.2344      2.00000
      8       0.5281      2.00000
      9       5.7962      0.00000
     10       6.4554      0.00000
     11      10.8373      0.00000
     12      11.0078      0.00000
     13      13.6939      0.00000
     14      14.3059      0.00000
     15      15.9849      0.00000
     16      17.4926      0.00000
     17      19.7137      0.00000
     18      21.5146      0.00000
     19      22.4278      0.00000
     20      22.8426      0.00000

 k-point     4 :       0.2500    0.2500    0.0000
  band No.  band energies     occupation 
      1     -13.3931      2.00000
      2     -13.3328      2.00000
      3      -6.2755      2.00000
      4      -6.2357      2.00000
      5      -4.5622      2.00000
      6      -4.5201      2.00000
      7      -0.1152      2.00000
      8       0.4836      2.00000
      9       6.9268      0.00000
     10       7.1052      0.00000
     11      11.3952      0.00000
     12      14.4113      0.00000
     13      14.6587      0.00000
     14      15.2770      0.00000
     15      15.6229      0.00000
     16      15.8218      0.00000
     17      17.0779      0.00000
     18      19.9497      0.00000
     19      20.2091      0.00000
     20      20.5920      0.00000

 k-point     5 :       0.0000    0.0000    0.3333
  band No.  band energies     occupation 
      1     -16.3339      2.00000
      2     -16.2699      2.00000
      3      -4.1826      2.00000
      4      -3.6340      2.00000
      5      -0.0527      2.00000
      6      -0.0527      2.00000
      7      -0.0151      2.00000
      8      -0.0151      2.00000
      9       6.7881      0.00000
     10       8.7062      0.00000
     11      12.8113      0.00000
     12      12.8113      0.00000
     13      12.8483      0.00000
     14      12.8483      0.00000
     15      13.1856      0.00000
     16      13.8051      0.00000
     17      15.4564      0.00000
     18      15.8479      0.00000
     19      21.1061      0.00000
     20      24.0103      0.00000

 k-point     6 :       0.2500    0.0000    0.3333
  band No.  band energies     occupation 
      1     -15.1856      2.00000
      2     -15.1285      2.00000
      3      -3.7953      2.00000
      4      -3.7573      2.00000
      5      -2.6008      2.00000
      6      -2.1137      2.00000
      7      -1.6528      2.00000
      8      -1.6150      2.00000
      9       8.3965      0.00000
     10       9.2641      0.00000
     11      10.8527      0.00000
     12      11.5327      0.00000
     13      12.4343      0.00000
     14      12.9793      0.00000
     15      16.9942      0.00000
     16      17.2385      0.00000
     17      17.2785      0.00000
     18      17.9177      0.00000
     19      21.0783      0.00000
     20      21.7035      0.00000

 k-point     7 :       0.5000    0.0000    0.3333
  band No.  band energies     occupation 
      1     -13.2638      2.00000
      2     -13.2243      2.00000
      3      -7.5590      2.00000
      4      -7.5159      2.00000
      5      -2.8210      2.00000
      6      -2.7831      2.00000
      7       0.3132      2.00000
      8       0.4645      2.00000
      9       5.8934      0.00000
     10       6.2176      0.00000
     11      10.9721      0.00000
     12      11.0532      0.00000
     13      14.1032      0.00000
     14      14.4890      0.00000
     15      15.7562      0.00000
     16      16.7386      0.00000
     17      19.7072      0.00000
     18      21.1464      0.00000
     19      22.8507      0.00000
     20      22.9119      0.00000

 k-point     8 :       0.2500    0.2500    0.3333
  band No.  band energies     occupation 
      1     -13.3851      2.00000
      2     -13.3410      2.00000
      3      -6.2743      2.00000
      4      -6.2378      2.00000
      5      -4.5603      2.00000
      6      -4.5228      2.00000
      7       0.0293      2.00000
      8       0.3302      2.00000
      9       6.9412      0.00000
     10       7.0227      0.00000
     11      12.0234      0.00000
     12      13.3391      0.00000
     13      15.0796      0.00000
     14      15.2596      0.00000
     15      15.4881      0.00000
     16      16.3034      0.00000
     17      17.1086      0.00000
     18      18.3313      0.00000
     19      20.7149      0.00000
     20      21.9652      0.00000


--------------------------------------------------------------------------------------------------------


 soft charge-density along one line, spin component           1
         0         1         2         3         4         5         6         7         8         9
 total charge-density along one line
 
 pseudopotential strength for first ion, spin component:           1
  6.447   9.816  -0.000  -0.000  -0.000  -0.000  -0.000  -0.000
  9.816  14.941  -0.000  -0.000  -0.000  -0.000  -0.000  -0.000
 -0.000  -0.000  -2.178  -0.000  -0.000  -3.705  -0.000  -0.000
 -0.000  -0.000  -0.000  -2.176  -0.000  -0.000  -3.697  -0.000
 -0.000  -0.000  -0.000  -0.000  -2.178  -0.000  -0.000  -3.705
 -0.000  -0.000  -3.705  -0.000  -0.000  -6.102  -0.000  -0.000
 -0.000  -0.000  -0.000  -3.697  -0.000  -0.000  -6.084  -0.000
 -0.000  -0.000  -0.000  -0.000  -3.705  -0.000  -0.000  -6.102
 total augmentation occupancy for first ion, spin component:           1
  4.195  -1.224  -0.000   0.000   0.000   0.000   0.000   0.000
 -1.224   0.385  -0.000   0.000   0.000   0.000   0.000   0.000
 -0.000  -0.000   4.893   0.000   0.000  -1.470   0.000   0.000
  0.000   0.000   0.000   1.599   0.000   0.000  -0.389   0.000
  0.000   0.000   0.000   0.000   4.893   0.000   0.000  -1.470
  0.000   0.000  -1.470   0.000   0.000   0.457   0.000   0.000
  0.000   0.000   0.000  -0.389   0.000   0.000   0.096   0.000
  0.000   0.000   0.000   0.000  -1.470   0.000   0.000   0.457


------------------------ aborting loop because EDIFF is reached ----------------------------------------


 


 total charge     
 
# of ion       s       p       d       tot
------------------------------------------
    1        0.737   1.417   0.000   2.154
    2        0.737   1.417   0.000   2.154
    3        1.224   2.788   0.000   4.012
    4        1.224   2.789   0.000   4.012
--------------------------------------------------
tot          3.921   8.411   0.000  12.332
 
    CHARGE:  cpu time    0.0022: real time    0.0022
    FORLOC:  cpu time    0.0001: real time    0.0001
    FORNL :  cpu time    0.0058: real time    0.0058
    STRESS:  cpu time    0.0326: real time    0.0329
    FORCOR:  cpu time    0.0019: real time    0.0019
    FORHAR:  cpu time    0.0006: real time    0.0006
    MIXING:  cpu time    0.0001: real time    0.0001
    OFIELD:  cpu time    0.0000: real time    0.0000

  FORCE on cell =-STRESS in cart. coord.  units (eV):
  Direction    XX          YY          ZZ          XY          YZ          ZX
  --------------------------------------------------------------------------------------
  Alpha Z    34.59384    34.59384    34.59384
  Ewald     121.29472   121.29472  -664.47690    -0.00000    -0.00000    -0.00000
  Hartree   223.93572   223.93572  -166.29879     0.00000     0.00000     0.00000
  E(xc)     -63.12398   -63.12398   -64.95491     0.00000     0.00000     0.00000
  Local    -544.62532  -544.62456   600.60144     0.00000     0.00000    -0.00010
  n-local   -30.86930   -29.73545   -30.05143     0.20441    -0.00514     0.01435
  augment     2.17248     2.17235     2.50488    -0.00000     0.00000    -0.00000
  Kinetic   258.32836   253.83782   288.06810     2.67273     0.05090    -0.14337
  Fock        0.00000     0.00000     0.00000     0.00000     0.00000     0.00000
  -------------------------------------------------------------------------------------
  Total       0.02848     0.02848    -0.01377     0.00000     0.00000    -0.00000
  in kB       1.10904     1.10904    -0.53611     0.00000     0.00000    -0.00000
  external pressure =        0.56 kB  Pullay stress =        0.00 kB


 VOLUME and BASIS-vectors are now :
 -----------------------------------------------------------------------------
  energy-cutoff  :      500.00
  volume of cell :       41.15
      direct lattice vectors                 reciprocal lattice vectors
     1.256237318 -2.175866861  0.000000000     0.398013968 -0.229793472  0.000000000
     1.256237318  2.175866861  0.000000000     0.398013968  0.229793472  0.000000000
     0.000000000  0.000000000  7.526459174     0.000000000  0.000000000  0.132864602

  length of vectors
     2.512474636  2.512474636  7.526459174     0.459586943  0.459586943  0.132864602


 FORCES acting on ions
    electron-ion (+dipol)            ewald-force                    non-local-force                 convergence-correction
 -----------------------------------------------------------------------------------------------
   -.538E-13 -.123E-04 -.209E-14   0.466E-14 -.651E-11 -.139E-13   -.278E-16 0.555E-16 0.000E+00   0.252E-14 0.379E-06 0.392E-13
   -.104E-13 -.162E-04 -.247E-12   0.347E-14 0.130E-10 0.139E-13   -.278E-16 0.555E-16 0.000E+00   0.264E-15 0.388E-06 -.373E-13
   0.300E-12 -.611E-06 -.805E-12   -.352E-14 0.651E-11 -.231E-13   0.000E+00 -.125E-15 0.000E+00   -.218E-14 0.440E-06 0.771E-13
   0.325E-12 -.281E-05 -.358E-11   -.271E-14 -.130E-10 0.231E-13   0.000E+00 0.555E-16 0.000E+00   0.995E-14 0.499E-06 -.739E-13
 -----------------------------------------------------------------------------------------------
   0.561E-12 -.319E-04 -.464E-11   0.191E-14 0.202E-14 0.000E+00   -.555E-16 0.416E-16 0.000E+00   0.106E-13 0.171E-05 0.516E-14
 
 
 POSITION                                       TOTAL-FORCE (eV/Angst)
 -----------------------------------------------------------------------------------
      0.00000      0.00000      0.00000         0.000000     -0.000000      0.000000
      1.25624      0.72529      3.76323        -0.000000      0.000000      0.000000
      1.25624      0.72529      0.00000         0.000000     -0.000000      0.000000
      1.25624     -0.72529      3.76323         0.000000     -0.000000      0.000000
 -----------------------------------------------------------------------------------
    total drift:                                0.000000     -0.000030     -0.000000


--------------------------------------------------------------------------------------------------------



  FREE ENERGIE OF THE ION-ELECTRON SYSTEM (eV)
  ---------------------------------------------------
  free  energy   TOTEN  =       -35.15993960 eV

  energy  without entropy=      -35.15993960  energy(sigma->0) =      -35.15993960
 


--------------------------------------------------------------------------------------------------------


    POTLOK:  cpu time    0.0046: real time    0.0047


--------------------------------------------------------------------------------------------------------


 writing wavefunctions
     LOOP+:  cpu time    0.5295: real time    0.5520
    4ORBIT:  cpu time    0.0000: real time    0.0000
 


 total charge     
 
# of ion       s       p       d       tot
------------------------------------------
    1        0.737   1.417   0.000   2.154
    2        0.737   1.417   0.000   2.154
    3        1.224   2.788   0.000   4.012
    4        1.224   2.789   0.000   4.012
--------------------------------------------------
tot          3.921   8.411   0.000  12.332
 

 total amount of memory used by VASP MPI-rank0    32491. kBytes
=======================================================================

   base      :      30000. kBytes
   nonl-proj :       1175. kBytes
   fftplans  :        561. kBytes
   grid      :        600. kBytes
   one-center:         12. kBytes
   wavefun   :        143. kBytes
 
  
  
 General timing and accounting informations for this job:
 ========================================================
  
                  Total CPU time used (sec):        0.976
                            User time (sec):        0.715
                          System time (sec):        0.261
                         Elapsed time (sec):        1.256
  
                   Maximum memory used (kb):       69756.
                   Average memory used (kb):           0.
  
                          Minor page faults:        10016
                          Major page faults:            1
                 Voluntary context switches:         3689
