 vasp.5.4.4.18Apr17-6-g9f103f2a35 (build May 10 2019 17:57:18) complex          
  
 executed on             LinuxIFC date 2024.07.15  18:29:15
 running on   20 total cores
 distrk:  each k-point on   20 cores,    1 groups
 distr:  one band on NCORES_PER_BAND=   1 cores,   20 groups


--------------------------------------------------------------------------------------------------------


 INCAR:
 POTCAR:    PAW_PBE B 06Sep2000                   
 POTCAR:    PAW_PBE N 08Apr2002                   

 ----------------------------------------------------------------------------- 
|                                                                             |
|           W    W    AA    RRRRR   N    N  II  N    N   GGGG   !!!           |
|           W    W   A  A   R    R  NN   N  II  NN   N  G    G  !!!           |
|           W    W  A    A  R    R  N N  N  II  N N  N  G       !!!           |
|           W WW W  AAAAAA  RRRRR   N  N N  II  N  N N  G  GGG   !            |
|           WW  WW  A    A  R   R   N   NN  II  N   NN  G    G                |
|           W    W  A    A  R    R  N    N  II  N    N   GGGG   !!!           |
|                                                                             |
|      For optimal performance we recommend to set                            |
|        NCORE= 4 - approx SQRT( number of cores)                             |
|      NCORE specifies how many cores store one orbital (NPAR=cpu/NCORE).     |
|      This setting can  greatly improve the performance of VASP for DFT.     |
|      The default,   NCORE=1            might be grossly inefficient         |
|      on modern multi-core architectures or massively parallel machines.     |
|      Do your own testing !!!!                                               |
|      Unfortunately you need to use the default for GW and RPA calculations. |
|      (for HF NCORE is supported but not extensively tested yet)             |
|                                                                             |
 ----------------------------------------------------------------------------- 

 POTCAR:    PAW_PBE B 06Sep2000                   
   SHA256 =  a32ced30f5ae56fd4d10b4325ff17eb3e4e38ee0f4288bc219fb012fddfa6e97 B/
   COPYR  = (c) Copyright 06Sep2000 Georg Kresse                                
   COPYR  = This file is part of the software VASP. Any use, copying, and all ot
   COPYR  = If you do not have a valid VASP license, you may not use, copy or di
   VRHFIN =B: s2p1                                                              
   LEXCH  = PE                                                                  
   EATOM  =    71.1703 eV,    5.2309 Ry                                         
                                                                                
   TITEL  = PAW_PBE B 06Sep2000                                                 
   LULTRA =        F    use ultrasoft PP ?                                      
   IUNSCR =        1    unscreen: 0-lin 1-nonlin 2-no                           
   RPACOR =    1.200    partial core radius                                     
   POMASS =   10.811; ZVAL   =    3.000    mass and valenz                      
   RCORE  =    1.700    outmost cutoff radius                                   
   RWIGS  =    1.710; RWIGS  =    0.905    wigner-seitz radius (au A)           
   ENMAX  =  318.614; ENMIN  =  238.960 eV                                      
   ICORE  =        2    local potential                                         
   LCOR   =        T    correct aug charges                                     
   LPAW   =        T    paw PP                                                  
   EAUG   =  535.514                                                            
   DEXC   =    0.000                                                            
   RMAX   =    1.732    core radius for proj-oper                               
   RAUG   =    1.300    factor for augmentation sphere                          
   RDEP   =    1.757    radius for radial grids                                 
   RDEPT  =    1.436    core radius for aug-charge                              
                                                                                
   Atomic configuration                                                         
    4 entries                                                                   
     n  l   j            E        occ.                                          
     1  0  0.50      -180.5896   2.0000                                         
     2  0  0.50        -9.4431   2.0000                                         
     2  1  0.50        -3.6068   1.0000                                         
     3  2  1.50        -4.0817   0.0000                                         
   Description                                                                  
     l       E           TYP  RCUT    TYP  RCUT                                 
     0     -9.4430752     23  1.500                                             
     0      0.8675899     23  1.500                                             
     1     -3.6067955     23  1.700                                             
     1      6.1086146     23  1.700                                             
     2     -4.0817478      7  1.700                                             
  local pseudopotential read in
  partial core-charges read in
  partial kinetic energy density read in
  atomic valenz-charges read in
  non local Contribution for L=           0  read in
    real space projection operators read in
  non local Contribution for L=           0  read in
    real space projection operators read in
  non local Contribution for L=           1  read in
    real space projection operators read in
  non local Contribution for L=           1  read in
    real space projection operators read in
    PAW grid and wavefunctions read in
 
   number of l-projection  operators is LMAX  =           4
   number of lm-projection operators is LMMAX =           8
 
 POTCAR:    PAW_PBE N 08Apr2002                   
   SHA256 =  e053789ff3a61a86a1b75d8a110fcc91f86041011e7b0817c7c99e4e8a6349d7 N/
   COPYR  = (c) Copyright 08Apr2002 Georg Kresse                                
   COPYR  = This file is part of the software VASP. Any use, copying, and all ot
   COPYR  = If you do not have a valid VASP license, you may not use, copy or di
   VRHFIN =N: s2p3                                                              
   LEXCH  = PE                                                                  
   EATOM  =   264.5486 eV,   19.4438 Ry                                         
                                                                                
   TITEL  = PAW_PBE N 08Apr2002                                                 
   LULTRA =        F    use ultrasoft PP ?                                      
   IUNSCR =        1    unscreen: 0-lin 1-nonlin 2-no                           
   RPACOR =    1.200    partial core radius                                     
   POMASS =   14.001; ZVAL   =    5.000    mass and valenz                      
   RCORE  =    1.500    outmost cutoff radius                                   
   RWIGS  =    1.400; RWIGS  =    0.741    wigner-seitz radius (au A)           
   ENMAX  =  400.000; ENMIN  =  300.000 eV                                      
   ICORE  =        2    local potential                                         
   LCOR   =        T    correct aug charges                                     
   LPAW   =        T    paw PP                                                  
   EAUG   =  627.112                                                            
   DEXC   =    0.000                                                            
   RMAX   =    1.529    core radius for proj-oper                               
   RAUG   =    1.300    factor for augmentation sphere                          
   RDEP   =    1.514    radius for radial grids                                 
   RDEPT  =    1.338    core radius for aug-charge                              
                                                                                
   Atomic configuration                                                         
    4 entries                                                                   
     n  l   j            E        occ.                                          
     1  0  0.50      -384.7179   2.0000                                         
     2  0  0.50       -18.5828   2.0000                                         
     2  1  0.50        -7.0898   3.0000                                         
     3  2  1.50        -6.8029   0.0000                                         
   Description                                                                  
     l       E           TYP  RCUT    TYP  RCUT                                 
     0    -18.5828119     23  1.200                                             
     0    -13.5018863     23  1.200                                             
     1     -7.0897853     23  1.500                                             
     1      9.5240782     23  1.500                                             
     2     -6.8029130      7  1.500                                             
  local pseudopotential read in
  partial core-charges read in
  partial kinetic energy density read in
  atomic valenz-charges read in
  non local Contribution for L=           0  read in
    real space projection operators read in
  non local Contribution for L=           0  read in
    real space projection operators read in
  non local Contribution for L=           1  read in
    real space projection operators read in
  non local Contribution for L=           1  read in
    real space projection operators read in
    PAW grid and wavefunctions read in
 
   number of l-projection  operators is LMAX  =           4
   number of lm-projection operators is LMMAX =           8
 
  PAW_PBE B 06Sep2000                   :
 energy of atom  1       EATOM=  -71.1703
 kinetic energy error for atom=    0.0012 (will be added to EATOM!!)
  PAW_PBE N 08Apr2002                   :
 energy of atom  2       EATOM= -264.5486
 kinetic energy error for atom=    0.0138 (will be added to EATOM!!)
 
 
 POSCAR: B2 N2                                   
  positions in direct lattice
  velocities in cartesian coordinates
 exchange correlation table for  LEXCH =        8
   RHO(1)=    0.500       N(1)  =     2000
   RHO(2)=  100.500       N(2)  =     4000
 


--------------------------------------------------------------------------------------------------------


 ion  position               nearest neighbor table
   1  0.000  0.000  0.000-   3 1.45   3 1.45   3 1.45
   2  0.333  0.667  0.500-   4 1.45   4 1.45   4 1.45
   3  0.333  0.667  0.000-   1 1.45   1 1.45   1 1.45
   4  0.667  0.333  0.500-   2 1.45   2 1.45   2 1.45
 
  LATTYP: Found a hexagonal cell.
 ALAT       =     2.5124746362
 C/A-ratio  =     2.9956358826
  
  Lattice vectors:
  
 A1 = (   1.2562373181,  -2.1758668613,   0.0000000000)
 A2 = (   1.2562373181,   2.1758668613,   0.0000000000)
 A3 = (   0.0000000000,   0.0000000000,   7.5264591742)


Analysis of symmetry for initial positions (statically):
=====================================================================
 Subroutine PRICEL returns:
 Original cell was already a primitive cell.
 

 Routine SETGRP: Setting up the symmetry group for a 
 hexagonal supercell.


 Subroutine GETGRP returns: Found 12 space group operations
 (whereof 12 operations were pure point group operations)
 out of a pool of 24 trial point group operations.


The static configuration has the point symmetry D_3h.


Analysis of symmetry for dynamics (positions and initial velocities):
=====================================================================
 Subroutine PRICEL returns:
 Original cell was already a primitive cell.
 

 Routine SETGRP: Setting up the symmetry group for a 
 hexagonal supercell.


 Subroutine GETGRP returns: Found 12 space group operations
 (whereof 12 operations were pure point group operations)
 out of a pool of 24 trial point group operations.


The dynamic configuration has the point symmetry D_3h.


 Subroutine INISYM returns: Found 12 space group operations
 (whereof 12 operations are pure point group operations),
 and found     1 'primitive' translations

 
 
 KPOINTS: A                                       

Automatic generation of k-mesh.
Space group operators:
 irot       det(A)        alpha          n_x          n_y          n_z        tau_x        tau_y        tau_z
    1     1.000000     0.000000     1.000000     0.000000     0.000000     0.000000     0.000000     0.000000
    2    -1.000000    60.000000     0.000000     0.000000    -1.000000     0.000000     0.000000     0.000000
    3     1.000000   120.000000     0.000000     0.000000    -1.000000     0.000000     0.000000     0.000000
    4    -1.000000   180.000000     0.000000     0.000000     1.000000     0.000000     0.000000     0.000000
    5     1.000000   120.000000     0.000000     0.000000     1.000000     0.000000     0.000000     0.000000
    6    -1.000000    60.000000     0.000000     0.000000     1.000000     0.000000     0.000000     0.000000
    7    -1.000000   180.000000     0.500000    -0.866025     0.000000     0.000000     0.000000     0.000000
    8     1.000000   180.000000     0.000000     1.000000     0.000000     0.000000     0.000000     0.000000
    9    -1.000000   180.000000    -0.500000    -0.866025     0.000000     0.000000     0.000000     0.000000
   10     1.000000   180.000000     0.866025     0.500000     0.000000     0.000000     0.000000     0.000000
   11    -1.000000   180.000000     1.000000     0.000000     0.000000     0.000000     0.000000     0.000000
   12     1.000000   180.000000     0.866025    -0.500000     0.000000     0.000000     0.000000     0.000000
 
 Subroutine IBZKPT returns following result:
 ===========================================
 
 Found      6 irreducible k-points:
 
 Following reciprocal coordinates:
            Coordinates               Weight
  0.000000  0.000000  0.000000      1.000000
  0.333333  0.000000  0.000000      6.000000
  0.333333  0.333333  0.000000      2.000000
  0.000000  0.000000  0.333333      2.000000
  0.333333  0.000000  0.333333     12.000000
  0.333333  0.333333  0.333333      4.000000
 
 Following cartesian coordinates:
            Coordinates               Weight
  0.000000  0.000000  0.000000      1.000000
  0.132671 -0.076598  0.000000      6.000000
  0.265343  0.000000  0.000000      2.000000
  0.000000  0.000000  0.044288      2.000000
  0.132671 -0.076598  0.044288     12.000000
  0.265343  0.000000  0.044288      4.000000
 


--------------------------------------------------------------------------------------------------------




 Dimension of arrays:
   k-points           NKPTS =      6   k-points in BZ     NKDIM =      6   number of bands    NBANDS=     20
   number of dos      NEDOS =    301   number of ions     NIONS =      4
   non local maximal  LDIM  =      4   non local SUM 2l+1 LMDIM =      8
   total plane-waves  NPLWV =   8232
   max r-space proj   IRMAX =      1   max aug-charges    IRDMAX=  25156
   dimension x,y,z NGX =    14 NGY =   14 NGZ =   42
   dimension x,y,z NGXF=    28 NGYF=   28 NGZF=   84
   support grid    NGXF=    56 NGYF=   56 NGZF=  168
   ions per type =               2   2
   NGX,Y,Z   is equivalent  to a cutoff of   9.26,  9.26,  9.28 a.u.
   NGXF,Y,Z  is equivalent  to a cutoff of  18.53, 18.53, 18.55 a.u.

 SYSTEM =  BN                                      
 POSCAR =  B2 N2                                   

 Startparameter for this run:
   NWRITE =      2    write-flag & timer
   PREC   = normal    normal or accurate (medium, high low for compatibility)
   ISTART =      1    job   : 0-new  1-cont  2-samecut
   ICHARG =      0    charge: 1-file 2-atom 10-const
   ISPIN  =      1    spin polarized calculation?
   LNONCOLLINEAR =      F non collinear calculations
   LSORBIT =      F    spin-orbit coupling
   INIWAV =      1    electr: 0-lowe 1-rand  2-diag
   LASPH  =      F    aspherical Exc in radial PAW
   METAGGA=      F    non-selfconsistent MetaGGA calc.

 Electronic Relaxation 1
   ENCUT  =  500.0 eV  36.75 Ry    6.06 a.u.   4.58  4.58 13.72*2*pi/ulx,y,z
   ENINI  =  500.0     initial cutoff
   ENAUG  =  627.1 eV  augmentation charge cutoff
   NELM   =     60;   NELMIN=  2; NELMDL=  0     # of ELM steps 
   EDIFF  = 0.1E-03   stopping-criterion for ELM
   LREAL  =      F    real-space projection
   NLSPLINE    = F    spline interpolate recip. space projectors
   LCOMPAT=      F    compatible to vasp.4.4
   GGA_COMPAT  = T    GGA compatible to vasp.4.4-vasp.4.6
   LMAXPAW     = -100 max onsite density
   LMAXMIX     =    2 max onsite mixed and CHGCAR
   VOSKOWN=      0    Vosko Wilk Nusair interpolation
   ROPT   =    0.00000   0.00000
 Ionic relaxation
   EDIFFG = 0.1E-02   stopping-criterion for IOM
   NSW    =      0    number of steps for IOM
   NBLOCK =      1;   KBLOCK =      1    inner block; outer block 
   IBRION =     -1    ionic relax: 0-MD 1-quasi-New 2-CG
   NFREE  =      0    steps in history (QN), initial steepest desc. (CG)
   ISIF   =      2    stress and relaxation
   IWAVPR =     10    prediction:  0-non 1-charg 2-wave 3-comb
   ISYM   =      2    0-nonsym 1-usesym 2-fastsym
   LCORR  =      T    Harris-Foulkes like correction to forces

   POTIM  = 0.5000    time-step for ionic-motion
   TEIN   =    0.0    initial temperature
   TEBEG  =    0.0;   TEEND  =   0.0 temperature during run
   SMASS  =  -3.00    Nose mass-parameter (am)
   estimated Nose-frequenzy (Omega)   =  0.10E-29 period in steps =****** mass=  -0.144E-27a.u.
   SCALEE = 1.0000    scale energy and forces
   NPACO  =    256;   APACO  = 16.0  distance and # of slots for P.C.
   PSTRESS=    0.0 pullay stress

  Mass of Ions in am
   POMASS =  10.81 14.00
  Ionic Valenz
   ZVAL   =   3.00  5.00
  Atomic Wigner-Seitz radii
   RWIGS  =  -1.00 -1.00
  virtual crystal weights 
   VCA    =   1.00  1.00
   NELECT =      16.0000    total number of electrons
   NUPDOWN=      -1.0000    fix difference up-down

 DOS related values:
   EMIN   =  10.00;   EMAX   =-10.00  energy-range for DOS
   EFERMI =   0.00
   ISMEAR =     0;   SIGMA  =   0.05  broadening in eV -4-tet -1-fermi 0-gaus

 Electronic relaxation 2 (details)
   IALGO  =     38    algorithm
   LDIAG  =      T    sub-space diagonalisation (order eigenvalues)
   LSUBROT=      F    optimize rotation matrix (better conditioning)
   TURBO    =      0    0=normal 1=particle mesh
   IRESTART =      0    0=no restart 2=restart with 2 vectors
   NREBOOT  =      0    no. of reboots
   NMIN     =      0    reboot dimension
   EREF     =   0.00    reference energy to select bands
   IMIX   =      4    mixing-type and parameters
     AMIX     =   0.40;   BMIX     =  1.00
     AMIX_MAG =   1.60;   BMIX_MAG =  1.00
     AMIN     =   0.10
     WC   =   100.;   INIMIX=   1;  MIXPRE=   1;  MAXMIX= -45

 Intra band minimization:
   WEIMIN = 0.0000     energy-eigenvalue tresh-hold
   EBREAK =  0.13E-05  absolut break condition
   DEPER  =   0.30     relativ break condition  

   TIME   =   0.40     timestep for ELM

  volume/ion in A,a.u.               =      10.29        69.42
  Fermi-wavevector in a.u.,A,eV,Ry     =   1.194923  2.258077 19.426956  1.427841
  Thomas-Fermi vector in A             =   2.330901
 
 Write flags
   LWAVE        =      T    write WAVECAR
   LDOWNSAMPLE  =      F    k-point downsampling of WAVECAR
   LCHARG       =      T    write CHGCAR
   LVTOT        =      F    write LOCPOT, total local potential
   LVHAR        =      F    write LOCPOT, Hartree potential only
   LELF         =      F    write electronic localiz. function (ELF)
   LORBIT       =     11    0 simple, 1 ext, 2 COOP (PROOUT), +10 PAW based schemes


 Dipole corrections
   LMONO  =      F    monopole corrections only (constant potential shift)
   LDIPOL =      F    correct potential (dipole corrections)
   IDIPOL =      0    1-x, 2-y, 3-z, 4-all directions 
   EPSILON=  1.0000000 bulk dielectric constant

 Exchange correlation treatment:
   GGA     =    --    GGA type
   LEXCH   =     8    internal setting for exchange type
   VOSKOWN=      0    Vosko Wilk Nusair interpolation
   LHFCALC =     F    Hartree Fock is set to
   LHFONE  =     F    Hartree Fock one center treatment
   AEXX    =    0.0000 exact exchange contribution

 Linear response parameters
   LEPSILON=     F    determine dielectric tensor
   LRPA    =     F    only Hartree local field effects (RPA)
   LNABLA  =     F    use nabla operator in PAW spheres
   LVEL    =     F    velocity operator in full k-point grid
   LINTERFAST=   F  fast interpolation
   KINTER  =     0    interpolate to denser k-point grid
   CSHIFT  =0.1000    complex shift for real part using Kramers Kronig
   OMEGAMAX=  -1.0    maximum frequency
   DEG_THRESHOLD= 0.2000000E-02 threshold for treating states as degnerate
   RTIME   =   -0.100 relaxation time in fs
  (WPLASMAI=    0.000 imaginary part of plasma frequency in eV, 0.658/RTIME)
   DFIELD  = 0.0000000 0.0000000 0.0000000 field for delta impulse in time
 
 Orbital magnetization related:
   ORBITALMAG=     F  switch on orbital magnetization
   LCHIMAG   =     F  perturbation theory with respect to B field
   DQ        =  0.001000  dq finite difference perturbation B field
   LLRAUG    =     F  two centre corrections for induced B field



--------------------------------------------------------------------------------------------------------


 Static calculation
 charge density and potential will be updated during run
 non-spin polarized calculation
 Variant of blocked Davidson
 Davidson routine will perform the subspace rotation
 perform sub-space diagonalisation
    after iterative eigenvector-optimisation
 modified Broyden-mixing scheme, WC =      100.0
 initial mixing is a Kerker type mixing with AMIX =  0.4000 and BMIX =      1.0000
 Hartree-type preconditioning will be used
 using additional bands           12
 reciprocal scheme for non local part
 use partial core corrections
 calculate Harris-corrections to forces 
   (improved forces if not selfconsistent)
 use gradient corrections 
 use of overlap-Matrix (Vanderbilt PP)
 Gauss-broadening in eV      SIGMA  =   0.05


--------------------------------------------------------------------------------------------------------


  energy-cutoff  :      500.00
  volume of cell :       41.15
      direct lattice vectors                 reciprocal lattice vectors
     1.256237318 -2.175866861  0.000000000     0.398013968 -0.229793472  0.000000000
     1.256237318  2.175866861  0.000000000     0.398013968  0.229793472  0.000000000
     0.000000000  0.000000000  7.526459174     0.000000000  0.000000000  0.132864602

  length of vectors
     2.512474636  2.512474636  7.526459174     0.459586943  0.459586943  0.132864602


 
 old parameters found on file WAVECAR:
  energy-cutoff  :      500.00
  volume of cell :       41.15
      direct lattice vectors                 reciprocal lattice vectors
     1.256237318 -2.175866861  0.000000000     0.398013968 -0.229793472  0.000000000
     1.256237318  2.175866861  0.000000000     0.398013968  0.229793472  0.000000000
     0.000000000  0.000000000  7.526459174     0.000000000  0.000000000  0.132864602

  length of vectors

 
 k-points in units of 2pi/SCALE and weight: A                                       
   0.00000000  0.00000000  0.00000000       0.037
   0.13267132 -0.07659782  0.00000000       0.222
   0.26534265  0.00000000  0.00000000       0.074
   0.00000000  0.00000000  0.04428820       0.074
   0.13267132 -0.07659782  0.04428820       0.444
   0.26534265  0.00000000  0.04428820       0.148
 
 k-points in reciprocal lattice and weights: A                                       
   0.00000000  0.00000000  0.00000000       0.037
   0.33333333  0.00000000  0.00000000       0.222
   0.33333333  0.33333333  0.00000000       0.074
   0.00000000  0.00000000  0.33333333       0.074
   0.33333333  0.00000000  0.33333333       0.444
   0.33333333  0.33333333  0.33333333       0.148
 
 position of ions in fractional coordinates (direct lattice) 
   0.00000000  0.00000000  0.00000000
   0.33333333  0.66666667  0.50000000
   0.33333333  0.66666667  0.00000000
   0.66666667  0.33333333  0.50000000
 
 position of ions in cartesian coordinates  (Angst):
   0.00000000  0.00000000  0.00000000
   1.25623732  0.72528895  3.76322959
   1.25623732  0.72528895  0.00000000
   1.25623732 -0.72528895  3.76322959
 


--------------------------------------------------------------------------------------------------------


 k-point  1 :   0.0000 0.0000 0.0000  plane waves:    1041
 k-point  2 :   0.3333 0.0000 0.0000  plane waves:    1056
 k-point  3 :   0.3333 0.3333 0.0000  plane waves:    1038
 k-point  4 :   0.0000 0.0000 0.3333  plane waves:    1054
 k-point  5 :   0.3333 0.0000 0.3333  plane waves:    1051
 k-point  6 :   0.3333 0.3333 0.3333  plane waves:    1032

 maximum and minimum number of plane-waves per node :      1056     1032

 maximum number of plane-waves:      1056
 maximum index in each direction: 
   IXMAX=    4   IYMAX=    4   IZMAX=   13
   IXMIN=   -4   IYMIN=   -4   IZMIN=  -14


 serial   3D FFT for wavefunctions
 parallel 3D FFT for charge:
    minimum data exchange during FFTs selected (reduces bandwidth)


 total amount of memory used by VASP MPI-rank0    32159. kBytes
=======================================================================

   base      :      30000. kBytes
   nonl-proj :        881. kBytes
   fftplans  :        561. kBytes
   grid      :        600. kBytes
   one-center:         12. kBytes
   wavefun   :        105. kBytes
 
     INWAV:  cpu time    0.0329: real time    0.0335
 Broyden mixing: mesh for mixing (old mesh)
   NGX =  9   NGY =  9   NGZ = 27
  (NGX  = 28   NGY  = 28   NGZ  = 84)
  gives a total of   2187 points

 charge density for first step will be calculated from the start-wavefunctions


--------------------------------------------------------------------------------------------------------


 Maximum index for augmentation-charges         1246 (set IRDMAX)


--------------------------------------------------------------------------------------------------------


 initial charge from wavefunction
 First call to EWALD:  gamma=   0.513
 Maximum number of real-space cells 4x 4x 2
 Maximum number of reciprocal cells 2x 2x 5

    FEWALD:  cpu time    0.0015: real time    0.0015


--------------------------------------- Iteration      1(   1)  ---------------------------------------


    POTLOK:  cpu time    0.0032: real time    0.0041
    SETDIJ:  cpu time    0.0026: real time    0.0027
     EDDAV:  cpu time    0.0291: real time    0.0294
       DOS:  cpu time    0.0003: real time    0.0004
    CHARGE:  cpu time    0.0019: real time    0.0019
    MIXING:  cpu time    0.0004: real time    0.0004
    --------------------------------------------
      LOOP:  cpu time    0.0375: real time    0.0389

 eigenvalue-minimisations  :   260
 total energy-change (2. order) :-0.3473857E+02  (-0.3758746E+02)
 number of electron      15.9999999 magnetization 
 augmentation part        0.4710259 magnetization 

 Broyden mixing:
  rms(total) = 0.14771E+01    rms(broyden)= 0.14770E+01
  rms(prec ) = 0.14873E+01
  weight for this iteration     100.00

 Free energy of the ion-electron system (eV)
  ---------------------------------------------------
  alpha Z        PSCENC =        34.59384069
  Ewald energy   TEWEN  =      -421.88703305
  -Hartree energ DENC   =      -287.19649832
  -exchange      EXHF   =         0.00000000
  -V(xc)+E(xc)   XCENC  =        57.02316957
  PAW double counting   =      3234.09959325    -3235.66073901
  entropy T*S    EENTRO =        -0.00000000
  eigenvalues    EBANDS =       -87.11883588
  atomic energy  EATOM  =       671.40793249
  Solvation  Ediel_sol  =         0.00000000
  ---------------------------------------------------
  free energy    TOTEN  =       -34.73857025 eV

  energy without entropy =      -34.73857025  energy(sigma->0) =      -34.73857025


--------------------------------------------------------------------------------------------------------




--------------------------------------- Iteration      1(   2)  ---------------------------------------


    POTLOK:  cpu time    0.0022: real time    0.0024
    SETDIJ:  cpu time    0.0024: real time    0.0024
     EDDAV:  cpu time    0.0657: real time    0.0662
       DOS:  cpu time    0.0002: real time    0.0002
    CHARGE:  cpu time    0.0024: real time    0.0024
    MIXING:  cpu time    0.0002: real time    0.0002
    --------------------------------------------
      LOOP:  cpu time    0.0731: real time    0.0739

 eigenvalue-minimisations  :   320
 total energy-change (2. order) :-0.2480260E+00  (-0.3215193E+00)
 number of electron      15.9999999 magnetization 
 augmentation part        0.4856699 magnetization 

 Broyden mixing:
  rms(total) = 0.11434E+01    rms(broyden)= 0.11434E+01
  rms(prec ) = 0.11449E+01
  weight for this iteration     100.00

 eigenvalues of (default mixing * dielectric matrix)
  average eigenvalue GAMMA=   3.8416
  3.8416

 Free energy of the ion-electron system (eV)
  ---------------------------------------------------
  alpha Z        PSCENC =        34.59384069
  Ewald energy   TEWEN  =      -421.88703305
  -Hartree energ DENC   =      -283.48069106
  -exchange      EXHF   =         0.00000000
  -V(xc)+E(xc)   XCENC  =        56.78900529
  PAW double counting   =      2725.09470904    -2726.60909638
  entropy T*S    EENTRO =        -0.00000000
  eigenvalues    EBANDS =       -90.89526329
  atomic energy  EATOM  =       671.40793249
  Solvation  Ediel_sol  =         0.00000000
  ---------------------------------------------------
  free energy    TOTEN  =       -34.98659627 eV

  energy without entropy =      -34.98659627  energy(sigma->0) =      -34.98659627


--------------------------------------------------------------------------------------------------------




--------------------------------------- Iteration      1(   3)  ---------------------------------------


    POTLOK:  cpu time    0.0022: real time    0.0024
    SETDIJ:  cpu time    0.0023: real time    0.0023
     EDDAV:  cpu time    0.0889: real time    0.0895
       DOS:  cpu time    0.0002: real time    0.0002
    CHARGE:  cpu time    0.0025: real time    0.0025
    MIXING:  cpu time    0.0002: real time    0.0002
    --------------------------------------------
      LOOP:  cpu time    0.0962: real time    0.0971

 eigenvalue-minimisations  :   380
 total energy-change (2. order) :-0.2648892E-02  (-0.1979724E-02)
 number of electron      15.9999999 magnetization 
 augmentation part        0.4837185 magnetization 

 Broyden mixing:
  rms(total) = 0.39820E+00    rms(broyden)= 0.39820E+00
  rms(prec ) = 0.39874E+00
  weight for this iteration     100.00

 eigenvalues of (default mixing * dielectric matrix)
  average eigenvalue GAMMA=   1.7518
  0.9866  2.5170

 Free energy of the ion-electron system (eV)
  ---------------------------------------------------
  alpha Z        PSCENC =        34.59384069
  Ewald energy   TEWEN  =      -421.88703305
  -Hartree energ DENC   =      -282.20635836
  -exchange      EXHF   =         0.00000000
  -V(xc)+E(xc)   XCENC  =        56.72865044
  PAW double counting   =      1603.62493207    -1605.10365406
  entropy T*S    EENTRO =        -0.00000000
  eigenvalues    EBANDS =       -92.14755539
  atomic energy  EATOM  =       671.40793249
  Solvation  Ediel_sol  =         0.00000000
  ---------------------------------------------------
  free energy    TOTEN  =       -34.98924516 eV

  energy without entropy =      -34.98924516  energy(sigma->0) =      -34.98924516


--------------------------------------------------------------------------------------------------------




--------------------------------------- Iteration      1(   4)  ---------------------------------------


    POTLOK:  cpu time    0.0021: real time    0.0024
    SETDIJ:  cpu time    0.0023: real time    0.0023
     EDDAV:  cpu time    0.0647: real time    0.0652
       DOS:  cpu time    0.0002: real time    0.0002
    CHARGE:  cpu time    0.0024: real time    0.0024
    MIXING:  cpu time    0.0002: real time    0.0002
    --------------------------------------------
      LOOP:  cpu time    0.0718: real time    0.0726

 eigenvalue-minimisations  :   320
 total energy-change (2. order) : 0.7202548E-03  (-0.1786186E-03)
 number of electron      15.9999999 magnetization 
 augmentation part        0.4848978 magnetization 

 Broyden mixing:
  rms(total) = 0.72964E-02    rms(broyden)= 0.72928E-02
  rms(prec ) = 0.80956E-02
  weight for this iteration     100.00

 eigenvalues of (default mixing * dielectric matrix)
  average eigenvalue GAMMA=   1.7500
  2.4243  0.9781  1.8476

 Free energy of the ion-electron system (eV)
  ---------------------------------------------------
  alpha Z        PSCENC =        34.59384069
  Ewald energy   TEWEN  =      -421.88703305
  -Hartree energ DENC   =      -282.32099520
  -exchange      EXHF   =         0.00000000
  -V(xc)+E(xc)   XCENC  =        56.72948071
  PAW double counting   =      1850.39981945    -1851.88619593
  entropy T*S    EENTRO =        -0.00000000
  eigenvalues    EBANDS =       -92.02537408
  atomic energy  EATOM  =       671.40793249
  Solvation  Ediel_sol  =         0.00000000
  ---------------------------------------------------
  free energy    TOTEN  =       -34.98852491 eV

  energy without entropy =      -34.98852491  energy(sigma->0) =      -34.98852491


--------------------------------------------------------------------------------------------------------




--------------------------------------- Iteration      1(   5)  ---------------------------------------


    POTLOK:  cpu time    0.0021: real time    0.0033
    SETDIJ:  cpu time    0.0023: real time    0.0023
     EDDAV:  cpu time    0.0643: real time    0.0649
       DOS:  cpu time    0.0003: real time    0.0003
    --------------------------------------------
      LOOP:  cpu time    0.0690: real time    0.0708

 eigenvalue-minimisations  :   320
 total energy-change (2. order) :-0.6500430E-04  (-0.5613532E-05)
 number of electron      15.9999999 magnetization 
 augmentation part        0.4848978 magnetization 

 Free energy of the ion-electron system (eV)
  ---------------------------------------------------
  alpha Z        PSCENC =        34.59384069
  Ewald energy   TEWEN  =      -421.88703305
  -Hartree energ DENC   =      -282.25255400
  -exchange      EXHF   =         0.00000000
  -V(xc)+E(xc)   XCENC  =        56.72566978
  PAW double counting   =      1856.67871094    -1858.16513216
  entropy T*S    EENTRO =        -0.00000000
  eigenvalues    EBANDS =       -92.09002461
  atomic energy  EATOM  =       671.40793249
  Solvation  Ediel_sol  =         0.00000000
  ---------------------------------------------------
  free energy    TOTEN  =       -34.98858991 eV

  energy without entropy =      -34.98858991  energy(sigma->0) =      -34.98858991


--------------------------------------------------------------------------------------------------------




 average (electrostatic) potential at core
  the test charge radii are     0.7672  0.7089
  (the norm of the test charge is              1.0000)
       1 -30.0586       2 -30.0138       3 -65.8233       4 -65.7769
 
 
 
 E-fermi :   1.6135     XC(G=0):  -9.2253     alpha+bet : -9.6182


 k-point     1 :       0.0000    0.0000    0.0000
  band No.  band energies     occupation 
      1     -16.3251      2.00000
      2     -16.2105      2.00000
      3      -4.4076      2.00000
      4      -3.2942      2.00000
      5      -0.0132      2.00000
      6      -0.0132      2.00000
      7       0.0314      2.00000
      8       0.0315      2.00000
      9       5.9645      0.00000
     10      10.1480      0.00000
     11      12.5008      0.00000
     12      12.8083      0.00000
     13      12.8084      0.00000
     14      12.8579      0.00000
     15      12.8579      0.00000
     16      14.0459      0.00000
     17      15.3294      0.00000
     18      16.1906      0.00000
     19      19.5912      0.00000
     20      25.6284      0.00000

 k-point     2 :       0.3333    0.0000    0.0000
  band No.  band energies     occupation 
      1     -14.3783      2.00000
      2     -14.2931      2.00000
      3      -5.5407      2.00000
      4      -5.4825      2.00000
      5      -2.2428      2.00000
      6      -2.1957      2.00000
      7      -1.6575      2.00000
      8      -0.8003      2.00000
      9       8.1880      0.00000
     10       8.7568      0.00000
     11       9.0758      0.00000
     12      11.4505      0.00000
     13      12.3243      0.00000
     14      14.6879      0.00000
     15      16.6156      0.00000
     16      18.9667      0.00000
     17      19.4909      0.00000
     18      19.7451      0.00000
     19      19.8237      0.00000
     20      20.8951      0.00000

 k-point     3 :       0.3333    0.3333    0.0000
  band No.  band energies     occupation 
      1     -12.6471      2.00000
      2     -12.6029      2.00000
      3      -6.5333      2.00000
      4      -6.4942      2.00000
      5      -5.8358      2.00000
      6      -5.7948      2.00000
      7       1.3036      2.00000
      8       1.3603      2.00000
      9       5.8910      0.00000
     10       6.0081      0.00000
     11      13.7710      0.00000
     12      14.1116      0.00000
     13      14.2582      0.00000
     14      14.3866      0.00000
     15      15.5756      0.00000
     16      17.7220      0.00000
     17      19.0501      0.00000
     18      19.2492      0.00000
     19      19.7489      0.00000
     20      20.3460      0.00000

 k-point     4 :       0.0000    0.0000    0.3333
  band No.  band energies     occupation 
      1     -16.3024      2.00000
      2     -16.2343      2.00000
      3      -4.1617      2.00000
      4      -3.6093      2.00000
      5      -0.0134      2.00000
      6      -0.0133      2.00000
      7       0.0311      2.00000
      8       0.0311      2.00000
      9       6.7921      0.00000
     10       8.7202      0.00000
     11      12.8109      0.00000
     12      12.8109      0.00000
     13      12.8546      0.00000
     14      12.8546      0.00000
     15      13.2196      0.00000
     16      13.8418      0.00000
     17      15.4764      0.00000
     18      15.8602      0.00000
     19      21.1050      0.00000
     20      24.0044      0.00000

 k-point     5 :       0.3333    0.0000    0.3333
  band No.  band energies     occupation 
      1     -14.3642      2.00000
      2     -14.3076      2.00000
      3      -5.5359      2.00000
      4      -5.4892      2.00000
      5      -2.2415      2.00000
      6      -2.1969      2.00000
      7      -1.4596      2.00000
      8      -1.0315      2.00000
      9       8.1829      0.00000
     10       8.3769      0.00000
     11      10.1078      0.00000
     12      11.2355      0.00000
     13      12.4371      0.00000
     14      13.3188      0.00000
     15      17.6063      0.00000
     16      18.6561      0.00000
     17      19.6430      0.00000
     18      19.7556      0.00000
     19      19.8087      0.00000
     20      21.0139      0.00000

 k-point     6 :       0.3333    0.3333    0.3333
  band No.  band energies     occupation 
      1     -12.6471      2.00000
      2     -12.6028      2.00000
      3      -6.5337      2.00000
      4      -6.4928      2.00000
      5      -5.8377      2.00000
      6      -5.7955      2.00000
      7       1.3160      2.00000
      8       1.3639      2.00000
      9       5.9103      0.00000
     10       5.9639      0.00000
     11      13.1296      0.00000
     12      13.4654      0.00000
     13      14.6943      0.00000
     14      15.8044      0.00000
     15      16.1221      0.00000
     16      17.2286      0.00000
     17      18.4557      0.00000
     18      19.2331      0.00000
     19      19.4426      0.00000
     20      20.6982      0.00000


--------------------------------------------------------------------------------------------------------


 soft charge-density along one line, spin component           1
         0         1         2         3         4         5         6         7         8         9
 total charge-density along one line
 
 pseudopotential strength for first ion, spin component:           1
  6.449   9.820  -0.000  -0.000  -0.000  -0.000  -0.000  -0.000
  9.820  14.948  -0.000  -0.000  -0.000  -0.000  -0.000  -0.000
 -0.000  -0.000  -2.180  -0.000  -0.000  -3.708  -0.000  -0.000
 -0.000  -0.000  -0.000  -2.178  -0.000  -0.000  -3.701  -0.000
 -0.000  -0.000  -0.000  -0.000  -2.180  -0.000  -0.000  -3.708
 -0.000  -0.000  -3.708  -0.000  -0.000  -6.109  -0.000  -0.000
 -0.000  -0.000  -0.000  -3.701  -0.000  -0.000  -6.091  -0.000
 -0.000  -0.000  -0.000  -0.000  -3.708  -0.000  -0.000  -6.109
 total augmentation occupancy for first ion, spin component:           1
  4.170  -1.220   0.000   0.000   0.000   0.000   0.000   0.000
 -1.220   0.381  -0.000   0.000   0.000  -0.000   0.000   0.000
 -0.000   0.000   4.884   0.000   0.000  -1.460   0.000   0.000
  0.000   0.000   0.000   1.568  -0.000   0.000  -0.385   0.000
  0.000   0.000   0.000   0.000   4.884   0.000   0.000  -1.460
  0.000  -0.000  -1.460   0.000   0.000   0.453  -0.000   0.000
  0.000   0.000   0.000  -0.385   0.000   0.000   0.095   0.000
  0.000   0.000   0.000   0.000  -1.460   0.000  -0.000   0.453


------------------------ aborting loop because EDIFF is reached ----------------------------------------


 


 total charge     
 
# of ion       s       p       d       tot
------------------------------------------
    1        0.729   1.419   0.000   2.148
    2        0.729   1.419   0.000   2.148
    3        1.217   2.803   0.000   4.020
    4        1.217   2.803   0.000   4.020
--------------------------------------------------
tot          3.891   8.444   0.000  12.335
 
    CHARGE:  cpu time    0.0018: real time    0.0018
    FORLOC:  cpu time    0.0001: real time    0.0001
    FORNL :  cpu time    0.0052: real time    0.0053
    STRESS:  cpu time    0.0264: real time    0.0266
    FORCOR:  cpu time    0.0018: real time    0.0019
    FORHAR:  cpu time    0.0006: real time    0.0006
    MIXING:  cpu time    0.0001: real time    0.0002
    OFIELD:  cpu time    0.0001: real time    0.0000

  FORCE on cell =-STRESS in cart. coord.  units (eV):
  Direction    XX          YY          ZZ          XY          YZ          ZX
  --------------------------------------------------------------------------------------
  Alpha Z    34.59384    34.59384    34.59384
  Ewald     121.29472   121.29472  -664.47690    -0.00000    -0.00000    -0.00000
  Hartree   224.15647   224.15647  -166.14540    -0.00000    -0.00000     0.00000
  E(xc)     -63.17666   -63.17666   -64.98264     0.00000     0.00000     0.00000
  Local    -544.95417  -544.95338   600.94826     0.00000     0.00000    -0.00010
  n-local   -31.12926   -30.77569   -30.49201     0.30629    -0.00813     0.01421
  augment     2.17043     2.17029     2.51521    -0.00000    -0.00000    -0.00000
  Kinetic   254.34738   259.33178   288.11370     4.31608     0.08781    -0.15207
  Fock        0.00000     0.00000     0.00000     0.00000     0.00000     0.00000
  -------------------------------------------------------------------------------------
  Total      -0.02794    -0.02794     0.07406     0.00000     0.00000     0.00000
  in kB      -1.08801    -1.08801     2.88383     0.00000     0.00000     0.00000
  external pressure =        0.24 kB  Pullay stress =        0.00 kB


 VOLUME and BASIS-vectors are now :
 -----------------------------------------------------------------------------
  energy-cutoff  :      500.00
  volume of cell :       41.15
      direct lattice vectors                 reciprocal lattice vectors
     1.256237318 -2.175866861  0.000000000     0.398013968 -0.229793472  0.000000000
     1.256237318  2.175866861  0.000000000     0.398013968  0.229793472  0.000000000
     0.000000000  0.000000000  7.526459174     0.000000000  0.000000000  0.132864602

  length of vectors
     2.512474636  2.512474636  7.526459174     0.459586943  0.459586943  0.132864602


 FORCES acting on ions
    electron-ion (+dipol)            ewald-force                    non-local-force                 convergence-correction
 -----------------------------------------------------------------------------------------------
   0.443E-13 -.135E-04 -.311E-14   0.466E-14 -.651E-11 -.139E-13   -.278E-16 0.555E-16 0.000E+00   0.181E-14 0.488E-08 0.363E-13
   -.273E-13 -.173E-04 -.250E-12   0.347E-14 0.130E-10 0.139E-13   -.555E-16 0.222E-15 0.000E+00   -.120E-15 0.972E-08 -.356E-13
   0.427E-13 -.792E-06 -.808E-12   -.352E-14 0.651E-11 -.231E-13   0.347E-17 -.694E-17 0.000E+00   -.786E-14 0.309E-06 0.661E-13
   0.218E-12 -.280E-05 -.360E-11   -.271E-14 -.130E-10 0.231E-13   0.104E-16 0.139E-16 0.000E+00   0.619E-14 0.321E-06 -.665E-13
 -----------------------------------------------------------------------------------------------
   0.278E-12 -.344E-04 -.466E-11   0.191E-14 0.202E-14 0.000E+00   -.694E-16 0.284E-15 0.000E+00   0.142E-16 0.645E-06 0.246E-15
 
 
 POSITION                                       TOTAL-FORCE (eV/Angst)
 -----------------------------------------------------------------------------------
      0.00000      0.00000      0.00000         0.000000     -0.000000      0.000000
      1.25624      0.72529      3.76323         0.000000      0.000000      0.000000
      1.25624      0.72529      0.00000        -0.000000     -0.000000      0.000000
      1.25624     -0.72529      3.76323        -0.000000     -0.000000      0.000000
 -----------------------------------------------------------------------------------
    total drift:                                0.000000     -0.000034     -0.000000


--------------------------------------------------------------------------------------------------------



  FREE ENERGIE OF THE ION-ELECTRON SYSTEM (eV)
  ---------------------------------------------------
  free  energy   TOTEN  =       -34.98858991 eV

  energy  without entropy=      -34.98858991  energy(sigma->0) =      -34.98858991
 


--------------------------------------------------------------------------------------------------------


    POTLOK:  cpu time    0.0046: real time    0.0047


--------------------------------------------------------------------------------------------------------


 writing wavefunctions
     LOOP+:  cpu time    0.4672: real time    0.4767
    4ORBIT:  cpu time    0.0000: real time    0.0000
 


 total charge     
 
# of ion       s       p       d       tot
------------------------------------------
    1        0.729   1.419   0.000   2.148
    2        0.729   1.419   0.000   2.148
    3        1.217   2.803   0.000   4.020
    4        1.217   2.803   0.000   4.020
--------------------------------------------------
tot          3.891   8.444   0.000  12.335
 

 total amount of memory used by VASP MPI-rank0    32159. kBytes
=======================================================================

   base      :      30000. kBytes
   nonl-proj :        881. kBytes
   fftplans  :        561. kBytes
   grid      :        600. kBytes
   one-center:         12. kBytes
   wavefun   :        105. kBytes
 
  
  
 General timing and accounting informations for this job:
 ========================================================
  
                  Total CPU time used (sec):        0.912
                            User time (sec):        0.641
                          System time (sec):        0.271
                         Elapsed time (sec):        1.210
  
                   Maximum memory used (kb):       68968.
                   Average memory used (kb):           0.
  
                          Minor page faults:         9395
                          Major page faults:            2
                 Voluntary context switches:         3431
