<?xml version="1.0" encoding="ISO-8859-1"?>
<modeling>
 <generator>
  <i name="program" type="string">vasp </i>
  <i name="version" type="string">5.4.4.18Apr17-6-g9f103f2a35  </i>
  <i name="subversion" type="string">(build May 10 2019 17:57:18) complex            parallel </i>
  <i name="platform" type="string">LinuxIFC </i>
  <i name="date" type="string">2024 07 15 </i>
  <i name="time" type="string">18:29:58 </i>
 </generator>
 <incar>
  <i type="string" name="SYSTEM"> BN</i>
  <i type="string" name="PREC">normal</i>
  <i type="logical" name="ADDGRID"> T  </i>
  <i type="int" name="ISPIN">     1</i>
  <i name="EDIFF">      0.00010000</i>
  <i name="ENCUT">    500.00000000</i>
  <i type="logical" name="LREAL"> F  </i>
  <i type="logical" name="LPLANE"> T  </i>
  <i type="int" name="ISMEAR">     0</i>
  <i name="SIGMA">      0.05000000</i>
  <i type="int" name="NWRITE">     2</i>
  <i type="int" name="LORBIT">    11</i>
  <v type="int" name="KPOINT_BSE">    -1     0     0     0</v>
 </incar>
 <structure name="primitive_cell" >
  <crystal>
   <varray name="basis" >
    <v>       1.25623732      -2.17586686       0.00000000 </v>
    <v>       1.25623732       2.17586686       0.00000000 </v>
    <v>       0.00000000       0.00000000       7.52645917 </v>
   </varray>
   <i name="volume">     41.14572454 </i>
   <varray name="rec_basis" >
    <v>       0.39801397      -0.22979347       0.00000000 </v>
    <v>       0.39801397       0.22979347       0.00000000 </v>
    <v>       0.00000000       0.00000000       0.13286460 </v>
   </varray>
  </crystal>
  <varray name="positions" >
   <v>       0.00000000       0.00000000       0.00000000 </v>
   <v>       0.33333333      -0.33333333       0.00000000 </v>
   <v>       0.33333333      -0.33333333      -0.50000000 </v>
   <v>      -0.33333333       0.33333333      -0.50000000 </v>
  </varray>
 </structure>
 <varray name="primitive_index" >
  <v type="int" >        1 </v>
  <v type="int" >        3 </v>
  <v type="int" >        2 </v>
  <v type="int" >        4 </v>
 </varray>
 <kpoints>
  <generation param="Gamma">
   <v type="int" name="divisions">      15       15        3 </v>
   <v name="usershift">      0.00000000       0.00000000       0.00000000 </v>
   <v name="genvec1">      0.06666667       0.00000000       0.00000000 </v>
   <v name="genvec2">      0.00000000       0.06666667       0.00000000 </v>
   <v name="genvec3">      0.00000000       0.00000000       0.33333333 </v>
   <v name="shift">      0.00000000       0.00000000       0.00000000 </v>
  </generation>
  <varray name="kpointlist" >
   <v>       0.00000000       0.00000000       0.00000000 </v>
   <v>       0.06666667       0.00000000       0.00000000 </v>
   <v>       0.13333333       0.00000000       0.00000000 </v>
   <v>       0.20000000       0.00000000       0.00000000 </v>
   <v>       0.26666667       0.00000000       0.00000000 </v>
   <v>       0.33333333       0.00000000       0.00000000 </v>
   <v>       0.40000000       0.00000000       0.00000000 </v>
   <v>       0.46666667       0.00000000       0.00000000 </v>
   <v>       0.06666667       0.06666667       0.00000000 </v>
   <v>       0.13333333       0.06666667       0.00000000 </v>
   <v>       0.20000000       0.06666667       0.00000000 </v>
   <v>       0.26666667       0.06666667       0.00000000 </v>
   <v>       0.33333333       0.06666667       0.00000000 </v>
   <v>       0.40000000       0.06666667       0.00000000 </v>
   <v>       0.46666667       0.06666667       0.00000000 </v>
   <v>       0.13333333       0.13333333       0.00000000 </v>
   <v>       0.20000000       0.13333333       0.00000000 </v>
   <v>       0.26666667       0.13333333       0.00000000 </v>
   <v>       0.33333333       0.13333333       0.00000000 </v>
   <v>       0.40000000       0.13333333       0.00000000 </v>
   <v>       0.20000000       0.20000000       0.00000000 </v>
   <v>       0.26666667       0.20000000       0.00000000 </v>
   <v>       0.33333333       0.20000000       0.00000000 </v>
   <v>       0.40000000       0.20000000       0.00000000 </v>
   <v>       0.26666667       0.26666667       0.00000000 </v>
   <v>       0.33333333       0.26666667       0.00000000 </v>
   <v>       0.33333333       0.33333333       0.00000000 </v>
   <v>       0.00000000       0.00000000       0.33333333 </v>
   <v>       0.06666667       0.00000000       0.33333333 </v>
   <v>       0.13333333       0.00000000       0.33333333 </v>
   <v>       0.20000000       0.00000000       0.33333333 </v>
   <v>       0.26666667       0.00000000       0.33333333 </v>
   <v>       0.33333333       0.00000000       0.33333333 </v>
   <v>       0.40000000       0.00000000       0.33333333 </v>
   <v>       0.46666667       0.00000000       0.33333333 </v>
   <v>       0.06666667       0.06666667       0.33333333 </v>
   <v>       0.13333333       0.06666667       0.33333333 </v>
   <v>       0.20000000       0.06666667       0.33333333 </v>
   <v>       0.26666667       0.06666667       0.33333333 </v>
   <v>       0.33333333       0.06666667       0.33333333 </v>
   <v>       0.40000000       0.06666667       0.33333333 </v>
   <v>       0.46666667       0.06666667       0.33333333 </v>
   <v>       0.13333333       0.13333333       0.33333333 </v>
   <v>       0.20000000       0.13333333       0.33333333 </v>
   <v>       0.26666667       0.13333333       0.33333333 </v>
   <v>       0.33333333       0.13333333       0.33333333 </v>
   <v>       0.40000000       0.13333333       0.33333333 </v>
   <v>       0.20000000       0.20000000       0.33333333 </v>
   <v>       0.26666667       0.20000000       0.33333333 </v>
   <v>       0.33333333       0.20000000       0.33333333 </v>
   <v>       0.40000000       0.20000000       0.33333333 </v>
   <v>       0.26666667       0.26666667       0.33333333 </v>
   <v>       0.33333333       0.26666667       0.33333333 </v>
   <v>       0.33333333       0.33333333       0.33333333 </v>
  </varray>
  <varray name="weights" >
   <v>       0.00148148 </v>
   <v>       0.00888889 </v>
   <v>       0.00888889 </v>
   <v>       0.00888889 </v>
   <v>       0.00888889 </v>
   <v>       0.00888889 </v>
   <v>       0.00888889 </v>
   <v>       0.00888889 </v>
   <v>       0.00888889 </v>
   <v>       0.01777778 </v>
   <v>       0.01777778 </v>
   <v>       0.01777778 </v>
   <v>       0.01777778 </v>
   <v>       0.01777778 </v>
   <v>       0.00888889 </v>
   <v>       0.00888889 </v>
   <v>       0.01777778 </v>
   <v>       0.01777778 </v>
   <v>       0.01777778 </v>
   <v>       0.01777778 </v>
   <v>       0.00888889 </v>
   <v>       0.01777778 </v>
   <v>       0.01777778 </v>
   <v>       0.00888889 </v>
   <v>       0.00888889 </v>
   <v>       0.01777778 </v>
   <v>       0.00296296 </v>
   <v>       0.00296296 </v>
   <v>       0.01777778 </v>
   <v>       0.01777778 </v>
   <v>       0.01777778 </v>
   <v>       0.01777778 </v>
   <v>       0.01777778 </v>
   <v>       0.01777778 </v>
   <v>       0.01777778 </v>
   <v>       0.01777778 </v>
   <v>       0.03555556 </v>
   <v>       0.03555556 </v>
   <v>       0.03555556 </v>
   <v>       0.03555556 </v>
   <v>       0.03555556 </v>
   <v>       0.01777778 </v>
   <v>       0.01777778 </v>
   <v>       0.03555556 </v>
   <v>       0.03555556 </v>
   <v>       0.03555556 </v>
   <v>       0.03555556 </v>
   <v>       0.01777778 </v>
   <v>       0.03555556 </v>
   <v>       0.03555556 </v>
   <v>       0.01777778 </v>
   <v>       0.01777778 </v>
   <v>       0.03555556 </v>
   <v>       0.00592593 </v>
  </varray>
 </kpoints>
 <parameters>
  <separator name="general" >
   <i type="string" name="SYSTEM">BN</i>
   <i type="logical" name="LCOMPAT"> F  </i>
  </separator>
  <separator name="electronic" >
   <i type="string" name="PREC">normal</i>
   <i name="ENMAX">    500.00000000</i>
   <i name="ENAUG">    627.11200000</i>
   <i name="EDIFF">      0.00010000</i>
   <i type="int" name="IALGO">    38</i>
   <i type="int" name="IWAVPR">    10</i>
   <i type="int" name="NBANDS">    20</i>
   <i name="NELECT">     16.00000000</i>
   <i type="int" name="TURBO">     0</i>
   <i type="int" name="IRESTART">     0</i>
   <i type="int" name="NREBOOT">     0</i>
   <i type="int" name="NMIN">     0</i>
   <i name="EREF">      0.00000000</i>
   <separator name="electronic smearing" >
    <i type="int" name="ISMEAR">     0</i>
    <i name="SIGMA">      0.05000000</i>
    <i name="KSPACING">      0.50000000</i>
    <i type="logical" name="KGAMMA"> T  </i>
   </separator>
   <separator name="electronic projectors" >
    <i type="logical" name="LREAL"> F  </i>
    <v name="ROPT">      0.00000000      0.00000000</v>
    <i type="int" name="LMAXPAW">  -100</i>
    <i type="int" name="LMAXMIX">     2</i>
    <i type="logical" name="NLSPLINE"> F  </i>
   </separator>
   <separator name="electronic startup" >
    <i type="int" name="ISTART">     1</i>
    <i type="int" name="ICHARG">     0</i>
    <i type="int" name="INIWAV">     1</i>
   </separator>
   <separator name="electronic spin" >
    <i type="int" name="ISPIN">     1</i>
    <i type="logical" name="LNONCOLLINEAR"> F  </i>
    <v name="MAGMOM">      1.00000000      1.00000000      1.00000000      1.00000000</v>
    <i name="NUPDOWN">     -1.00000000</i>
    <i type="logical" name="LSORBIT"> F  </i>
    <v name="SAXIS">      0.00000000      0.00000000      1.00000000</v>
    <i type="logical" name="LSPIRAL"> F  </i>
    <v name="QSPIRAL">      0.00000000      0.00000000      0.00000000</v>
    <i type="logical" name="LZEROZ"> F  </i>
   </separator>
   <separator name="electronic exchange-correlation" >
    <i type="logical" name="LASPH"> F  </i>
    <i type="logical" name="LMETAGGA"> F  </i>
   </separator>
   <separator name="electronic convergence" >
    <i type="int" name="NELM">    60</i>
    <i type="int" name="NELMDL">     0</i>
    <i type="int" name="NELMIN">     2</i>
    <i name="ENINI">    500.00000000</i>
    <separator name="electronic convergence detail" >
     <i type="logical" name="LDIAG"> T  </i>
     <i type="logical" name="LSUBROT"> F  </i>
     <i name="WEIMIN">      0.00000000</i>
     <i name="EBREAK">      0.00000125</i>
     <i name="DEPER">      0.30000000</i>
     <i type="int" name="NRMM">     4</i>
     <i name="TIME">      0.40000000</i>
    </separator>
   </separator>
   <separator name="electronic mixer" >
    <i name="AMIX">      0.40000000</i>
    <i name="BMIX">      1.00000000</i>
    <i name="AMIN">      0.10000000</i>
    <i name="AMIX_MAG">      1.60000000</i>
    <i name="BMIX_MAG">      1.00000000</i>
    <separator name="electronic mixer details" >
     <i type="int" name="IMIX">     4</i>
     <i type="logical" name="MIXFIRST"> F  </i>
     <i type="int" name="MAXMIX">   -45</i>
     <i name="WC">    100.00000000</i>
     <i type="int" name="INIMIX">     1</i>
     <i type="int" name="MIXPRE">     1</i>
     <i type="int" name="MREMOVE">     5</i>
    </separator>
   </separator>
   <separator name="electronic dipolcorrection" >
    <i type="logical" name="LDIPOL"> F  </i>
    <i type="logical" name="LMONO"> F  </i>
    <i type="int" name="IDIPOL">     0</i>
    <i name="EPSILON">      1.00000000</i>
    <v name="DIPOL">   -100.00000000   -100.00000000   -100.00000000</v>
    <i name="EFIELD">      0.00000000</i>
   </separator>
  </separator>
  <separator name="grids" >
   <i type="int" name="NGX">    14</i>
   <i type="int" name="NGY">    14</i>
   <i type="int" name="NGZ">    42</i>
   <i type="int" name="NGXF">    28</i>
   <i type="int" name="NGYF">    28</i>
   <i type="int" name="NGZF">    84</i>
   <i type="logical" name="ADDGRID"> T  </i>
  </separator>
  <separator name="ionic" >
   <i type="int" name="NSW">     0</i>
   <i type="int" name="IBRION">    -1</i>
   <i type="int" name="MDALGO">     0</i>
   <i type="int" name="ISIF">     2</i>
   <i name="PSTRESS">      0.00000000</i>
   <i name="EDIFFG">      0.00100000</i>
   <i type="int" name="NFREE">     0</i>
   <i name="POTIM">      0.50000000</i>
   <i name="SMASS">     -3.00000000</i>
   <i name="SCALEE">      1.00000000</i>
  </separator>
  <separator name="ionic md" >
   <i name="TEBEG">      0.00010000</i>
   <i name="TEEND">      0.00010000</i>
   <i type="int" name="NBLOCK">     1</i>
   <i type="int" name="KBLOCK">     1</i>
   <i type="int" name="NPACO">   256</i>
   <i name="APACO">     16.00000000</i>
  </separator>
  <separator name="symmetry" >
   <i type="int" name="ISYM">     2</i>
   <i name="SYMPREC">      0.00001000</i>
  </separator>
  <separator name="dos" >
   <i type="int" name="LORBIT">    11</i>
   <v name="RWIGS">     -1.00000000     -1.00000000</v>
   <i type="int" name="NEDOS">   301</i>
   <i name="EMIN">     10.00000000</i>
   <i name="EMAX">    -10.00000000</i>
   <i name="EFERMI">      0.00000000</i>
  </separator>
  <separator name="writing" >
   <i type="int" name="NWRITE">     2</i>
   <i type="logical" name="LWAVE"> T  </i>
   <i type="logical" name="LDOWNSAMPLE"> F  </i>
   <i type="logical" name="LCHARG"> T  </i>
   <i type="logical" name="LPARD"> F  </i>
   <i type="logical" name="LVTOT"> F  </i>
   <i type="logical" name="LVHAR"> F  </i>
   <i type="logical" name="LELF"> F  </i>
   <i type="logical" name="LOPTICS"> F  </i>
   <v name="STM">      0.00000000      0.00000000      0.00000000      0.00000000      0.00000000      0.00000000      0.00000000</v>
  </separator>
  <separator name="performance" >
   <i type="int" name="NPAR">    20</i>
   <i type="int" name="NSIM">     4</i>
   <i type="int" name="NBLK">    -1</i>
   <i type="logical" name="LPLANE"> T  </i>
   <i type="logical" name="LSCALAPACK"> T  </i>
   <i type="logical" name="LSCAAWARE"> F  </i>
   <i type="logical" name="LSCALU"> F  </i>
   <i type="logical" name="LASYNC"> F  </i>
   <i type="logical" name="LORBITALREAL"> F  </i>
  </separator>
  <separator name="miscellaneous" >
   <i type="int" name="IDIOT">     3</i>
   <i type="int" name="ISPECIAL">     0</i>
   <i type="logical" name="LMUSIC"> F  </i>
   <v name="POMASS">     10.81100000     14.00100000</v>
   <v name="DARWINR">      0.00000000      0.00000000</v>
   <v name="DARWINV">      1.00000000      1.00000000</v>
   <i type="logical" name="LCORR"> T  </i>
  </separator>
  <i type="logical" name="GGA_COMPAT"> T  </i>
  <i type="logical" name="LBERRY"> F  </i>
  <i type="int" name="ICORELEVEL">     0</i>
  <i type="logical" name="LDAU"> F  </i>
  <i type="int" name="I_CONSTRAINED_M">     0</i>
  <separator name="electronic exchange-correlation" >
   <i type="string" name="GGA">--</i>
   <i type="int" name="VOSKOWN">     0</i>
   <i type="logical" name="LHFCALC"> F  </i>
   <i type="string" name="PRECFOCK"></i>
   <i type="logical" name="LSYMGRAD"> F  </i>
   <i type="logical" name="LHFONE"> F  </i>
   <i type="logical" name="LRHFCALC"> F  </i>
   <i type="logical" name="LTHOMAS"> F  </i>
   <i type="logical" name="LMODELHF"> F  </i>
   <i name="ENCUT4O">     -1.00000000</i>
   <i type="int" name="EXXOEP">     0</i>
   <i type="int" name="FOURORBIT">     0</i>
   <i name="AEXX">      0.00000000</i>
   <i name="HFALPHA">      0.00000000</i>
   <i name="MCALPHA">      0.00000000</i>
   <i name="ALDAX">      1.00000000</i>
   <i name="AGGAX">      1.00000000</i>
   <i name="ALDAC">      1.00000000</i>
   <i name="AGGAC">      1.00000000</i>
   <i type="int" name="NKREDX">     1</i>
   <i type="int" name="NKREDY">     1</i>
   <i type="int" name="NKREDZ">     1</i>
   <i type="logical" name="SHIFTRED"> F  </i>
   <i type="logical" name="ODDONLY"> F  </i>
   <i type="logical" name="EVENONLY"> F  </i>
   <i type="int" name="LMAXFOCK">     0</i>
   <i type="int" name="NMAXFOCKAE">     0</i>
   <i type="logical" name="LFOCKAEDFT"> F  </i>
   <i name="HFSCREEN">      0.00000000</i>
   <i name="HFSCREENC">      0.00000000</i>
   <i type="int" name="NBANDSGWLOW">     0</i>
  </separator>
  <separator name="vdW DFT" >
   <i type="logical" name="LUSE_VDW"> F  </i>
   <i name="Zab_VDW">     -0.84910000</i>
   <i name="PARAM1">      0.12340000</i>
   <i name="PARAM2">      1.00000000</i>
   <i name="PARAM3">      0.00000000</i>
  </separator>
  <separator name="model GW" >
   <i type="int" name="MODEL_GW">     0</i>
   <i name="MODEL_EPS0">      6.17185868</i>
   <i name="MODEL_ALPHA">      1.00000000</i>
  </separator>
  <separator name="linear response parameters" >
   <i type="logical" name="LEPSILON"> F  </i>
   <i type="logical" name="LRPA"> F  </i>
   <i type="logical" name="LNABLA"> F  </i>
   <i type="logical" name="LVEL"> F  </i>
   <i type="int" name="KINTER">     0</i>
   <i name="CSHIFT">      0.10000000</i>
   <i name="OMEGAMAX">     -1.00000000</i>
   <i name="DEG_THRESHOLD">      0.00200000</i>
   <i name="RTIME">     -0.10000000</i>
   <i name="WPLASMAI">      0.00000000</i>
   <v name="DFIELD">      0.00000000      0.00000000      0.00000000</v>
   <v name="WPLASMA">      0.00000000      0.00000000      0.00000000      0.00000000      0.00000000      0.00000000      0.00000000      0.00000000      0.00000000</v>
  </separator>
  <separator name="orbital magnetization" >
   <i type="logical" name="NUCIND"> F  </i>
   <v name="MAGPOS">      0.00000000      0.00000000      0.00000000</v>
   <i type="logical" name="LNICSALL"> T  </i>
   <i type="logical" name="ORBITALMAG"> F  </i>
   <i type="logical" name="LMAGBLOCH"> F  </i>
   <i type="logical" name="LCHIMAG"> F  </i>
   <i type="logical" name="LGAUGE"> T  </i>
   <i type="int" name="MAGATOM">     0</i>
   <v name="MAGDIPOL">      0.00000000      0.00000000      0.00000000</v>
   <v name="AVECCONST">      0.00000000      0.00000000      0.00000000</v>
  </separator>
  <separator name="response functions" >
   <i type="logical" name="LADDER"> F  </i>
   <i type="logical" name="LRPAFORCE"> F  </i>
   <i type="logical" name="LFXC"> F  </i>
   <i type="logical" name="LHARTREE"> T  </i>
   <i type="int" name="IBSE">     0</i>
   <v type="int" name="KPOINT">    -1     0     0     0</v>
   <i type="logical" name="LTCTE"> F  </i>
   <i type="logical" name="LTETE"> F  </i>
   <i type="logical" name="LTRIPLET"> F  </i>
   <i type="logical" name="LFXCEPS"> F  </i>
   <i type="logical" name="LFXHEG"> F  </i>
   <i type="int" name="NATURALO">     2</i>
   <i type="logical" name="L2ORDER"> F  </i>
   <i type="logical" name="LMP2LT"> F  </i>
   <i type="logical" name="LUSEW"> F  </i>
   <i name="ENCUTGW">     -2.00000000</i>
   <i name="ENCUTGWSOFT">     -2.00000000</i>
   <i name="ENCUTLF">     -1.00000000</i>
   <i type="int" name="LMAXMP2">    -1</i>
   <i name="SCISSOR">      0.00000000</i>
   <i type="int" name="NOMEGA">     0</i>
   <i type="int" name="NOMEGAR">     0</i>
   <i type="int" name="NBANDSGW">    -1</i>
   <i type="int" name="NBANDSO">    -1</i>
   <i type="int" name="NBANDSV">    -1</i>
   <i type="int" name="NELM">     1</i>
   <i type="int" name="NELMHF">     1</i>
   <i type="int" name="DIM">     3</i>
   <i type="int" name="ANTIRES">     0</i>
   <i name="OMEGAMAX">    -30.00000000</i>
   <i name="OMEGAMIN">    -30.00000000</i>
   <i name="OMEGATL">   -200.00000000</i>
   <i type="int" name="OMEGAGRID">   140</i>
   <i name="CSHIFT">     -0.10000000</i>
   <i type="logical" name="SELFENERGY"> F  </i>
   <i type="logical" name="LSPECTRAL"> F  </i>
   <i type="logical" name="LSPECTRALGW"> F  </i>
   <i type="logical" name="LSINGLES"> F  </i>
   <i type="logical" name="LFERMIGW"> F  </i>
   <i type="logical" name="ODDONLYGW"> F  </i>
   <i type="logical" name="EVENONLYGW"> F  </i>
   <i type="int" name="NKREDLFX">     1</i>
   <i type="int" name="NKREDLFY">     1</i>
   <i type="int" name="NKREDLFZ">     1</i>
   <i type="int" name="MAXMEM">  2800</i>
   <i type="int" name="TELESCOPE">     0</i>
   <i type="int" name="TAUPAR">     1</i>
   <i type="int" name="OMEGAPAR">    -1</i>
   <i name="LAMBDA">      1.00000000</i>
  </separator>
  <separator name="External order field" >
   <i name="OFIELD_KAPPA">      0.00000000</i>
   <v name="OFIELD_K">      0.00000000      0.00000000      0.00000000</v>
   <i name="OFIELD_Q6_NEAR">      0.00000000</i>
   <i name="OFIELD_Q6_FAR">      0.00000000</i>
   <i name="OFIELD_A">      0.00000000</i>
  </separator>
 </parameters>
 <atominfo>
  <atoms>       4 </atoms>
  <types>       2 </types>
  <array name="atoms" >
   <dimension dim="1">ion</dimension>
   <field type="string">element</field>
   <field type="int">atomtype</field>
   <set>
    <rc><c>B </c><c>   1</c></rc>
    <rc><c>B </c><c>   1</c></rc>
    <rc><c>N </c><c>   2</c></rc>
    <rc><c>N </c><c>   2</c></rc>
   </set>
  </array>
  <array name="atomtypes" >
   <dimension dim="1">type</dimension>
   <field type="int">atomspertype</field>
   <field type="string">element</field>
   <field>mass</field>
   <field>valence</field>
   <field type="string">pseudopotential</field>
   <set>
    <rc><c>   2</c><c>B </c><c>     10.81100000</c><c>      3.00000000</c><c>  PAW_PBE B 06Sep2000                   </c></rc>
    <rc><c>   2</c><c>N </c><c>     14.00100000</c><c>      5.00000000</c><c>  PAW_PBE N 08Apr2002                   </c></rc>
   </set>
  </array>
 </atominfo>
 <structure name="initialpos" >
  <crystal>
   <varray name="basis" >
    <v>       1.25623732      -2.17586686       0.00000000 </v>
    <v>       1.25623732       2.17586686       0.00000000 </v>
    <v>       0.00000000       0.00000000       7.52645917 </v>
   </varray>
   <i name="volume">     41.14572454 </i>
   <varray name="rec_basis" >
    <v>       0.39801397      -0.22979347       0.00000000 </v>
    <v>       0.39801397       0.22979347       0.00000000 </v>
    <v>       0.00000000       0.00000000       0.13286460 </v>
   </varray>
  </crystal>
  <varray name="positions" >
   <v>       0.00000000       0.00000000       0.00000000 </v>
   <v>       0.33333333       0.66666667       0.50000000 </v>
   <v>       0.33333333       0.66666667       0.00000000 </v>
   <v>       0.66666667       0.33333333       0.50000000 </v>
  </varray>
 </structure>
 <calculation>
  <scstep>
   <time name="dav">    0.26    0.27</time>
   <time name="total">    0.28    0.28</time>
   <energy>
    <i name="alphaZ">     34.59384069 </i>
    <i name="ewald">   -421.88703305 </i>
    <i name="hartreedc">   -284.59335086 </i>
    <i name="XCdc">     56.87305734 </i>
    <i name="pawpsdc">   2271.93504193 </i>
    <i name="pawaedc">  -2273.39060206 </i>
    <i name="eentropy">     -0.00000000 </i>
    <i name="bandstr">    -90.08377435 </i>
    <i name="atom">    671.40793249 </i>
    <i name="e_fr_energy">    -35.14488786 </i>
    <i name="e_wo_entrp">    -35.14488786 </i>
    <i name="e_0_energy">    -35.14488786 </i>
   </energy>
  </scstep>
  <scstep>
   <time name="dav">    0.42    0.42</time>
   <time name="total">    0.43    0.44</time>
   <energy>
    <i name="e_fr_energy">    -35.19576033 </i>
    <i name="e_wo_entrp">    -35.19576033 </i>
    <i name="e_0_energy">    -35.19576033 </i>
   </energy>
  </scstep>
  <scstep>
   <time name="dav">    0.54    0.54</time>
   <time name="total">    0.55    0.55</time>
   <energy>
    <i name="e_fr_energy">    -35.19453048 </i>
    <i name="e_wo_entrp">    -35.19453048 </i>
    <i name="e_0_energy">    -35.19453048 </i>
   </energy>
  </scstep>
  <scstep>
   <time name="dav">    0.43    0.44</time>
   <time name="total">    0.44    0.44</time>
   <energy>
    <i name="alphaZ">     34.59384069 </i>
    <i name="ewald">   -421.88703305 </i>
    <i name="hartreedc">   -281.67354816 </i>
    <i name="XCdc">     56.68442820 </i>
    <i name="pawpsdc">   1853.59381015 </i>
    <i name="pawaedc">  -1855.05574382 </i>
    <i name="eentropy">     -0.00000000 </i>
    <i name="bandstr">    -92.85811793 </i>
    <i name="atom">    671.40793249 </i>
    <i name="e_fr_energy">    -35.19443142 </i>
    <i name="e_wo_entrp">    -35.19443142 </i>
    <i name="e_0_energy">    -35.19443142 </i>
   </energy>
  </scstep>
  <structure>
   <crystal>
    <varray name="basis" >
     <v>       1.25623732      -2.17586686       0.00000000 </v>
     <v>       1.25623732       2.17586686       0.00000000 </v>
     <v>       0.00000000       0.00000000       7.52645917 </v>
    </varray>
    <i name="volume">     41.14572454 </i>
    <varray name="rec_basis" >
     <v>       0.39801397      -0.22979347       0.00000000 </v>
     <v>       0.39801397       0.22979347       0.00000000 </v>
     <v>       0.00000000       0.00000000       0.13286460 </v>
    </varray>
   </crystal>
   <varray name="positions" >
    <v>       0.00000000       0.00000000       0.00000000 </v>
    <v>       0.33333333       0.66666667       0.50000000 </v>
    <v>       0.33333333       0.66666667       0.00000000 </v>
    <v>       0.66666667       0.33333333       0.50000000 </v>
   </varray>
  </structure>
  <varray name="forces" >
   <v>       0.00000000       0.00000000       0.00000000 </v>
   <v>      -0.00000000      -0.00000000       0.00000000 </v>
   <v>      -0.00000000      -0.00000000       0.00000000 </v>
   <v>      -0.00000000      -0.00000000       0.00000000 </v>
  </varray>
  <varray name="stress" >
   <v>       1.28892193      -0.00000000       0.00000000 </v>
   <v>      -0.00000000       1.28892193       0.00000000 </v>
   <v>      -0.00000000       0.00000000      -1.65213632 </v>
  </varray>
  <energy>
   <i name="e_fr_energy">    -35.19443142 </i>
   <i name="e_wo_entrp">    -35.19443142 </i>
   <i name="e_0_energy">     -0.00000000 </i>
  </energy>
  <time name="totalsc">    2.00    2.02</time>
  <eigenvalues>
   <array>
    <dimension dim="1">band</dimension>
    <dimension dim="2">kpoint</dimension>
    <dimension dim="3">spin</dimension>
    <field>eigene</field>
    <field>occ</field>
    <set>
     <set comment="spin 1">
      <set comment="kpoint 1">
       <r>  -16.3579    1.0000 </r>
       <r>  -16.2469    1.0000 </r>
       <r>   -4.4258    1.0000 </r>
       <r>   -3.3190    1.0000 </r>
       <r>   -0.0544    1.0000 </r>
       <r>   -0.0544    1.0000 </r>
       <r>   -0.0189    1.0000 </r>
       <r>   -0.0189    1.0000 </r>
       <r>    5.9628    0.0000 </r>
       <r>   10.1234    0.0000 </r>
       <r>   12.4734    0.0000 </r>
       <r>   12.8031    0.0000 </r>
       <r>   12.8031    0.0000 </r>
       <r>   12.8450    0.0000 </r>
       <r>   12.8450    0.0000 </r>
       <r>   14.0098    0.0000 </r>
       <r>   15.3051    0.0000 </r>
       <r>   16.1826    0.0000 </r>
       <r>   19.5866    0.0000 </r>
       <r>   25.6362    0.0000 </r>
      </set>
      <set comment="kpoint 2">
       <r>  -16.2723    1.0000 </r>
       <r>  -16.1626    1.0000 </r>
       <r>   -4.3084    1.0000 </r>
       <r>   -3.2094    1.0000 </r>
       <r>   -0.4180    1.0000 </r>
       <r>   -0.3826    1.0000 </r>
       <r>   -0.2217    1.0000 </r>
       <r>   -0.1858    1.0000 </r>
       <r>    6.1205    0.0000 </r>
       <r>   10.1459    0.0000 </r>
       <r>   12.4636    0.0000 </r>
       <r>   12.7854    0.0000 </r>
       <r>   13.0061    0.0000 </r>
       <r>   13.1819    0.0000 </r>
       <r>   13.2240    0.0000 </r>
       <r>   13.7300    0.0000 </r>
       <r>   15.5903    0.0000 </r>
       <r>   15.9439    0.0000 </r>
       <r>   19.7835    0.0000 </r>
       <r>   25.2914    0.0000 </r>
      </set>
      <set comment="kpoint 3">
       <r>  -16.0183    1.0000 </r>
       <r>  -15.9120    1.0000 </r>
       <r>   -3.9590    1.0000 </r>
       <r>   -2.8843    1.0000 </r>
       <r>   -1.3862    1.0000 </r>
       <r>   -1.3484    1.0000 </r>
       <r>   -0.6578    1.0000 </r>
       <r>   -0.6212    1.0000 </r>
       <r>    6.5571    0.0000 </r>
       <r>   10.1613    0.0000 </r>
       <r>   12.2581    0.0000 </r>
       <r>   12.6522    0.0000 </r>
       <r>   12.9300    0.0000 </r>
       <r>   13.7197    0.0000 </r>
       <r>   14.2448    0.0000 </r>
       <r>   14.2878    0.0000 </r>
       <r>   15.3426    0.0000 </r>
       <r>   16.3495    0.0000 </r>
       <r>   20.2834    0.0000 </r>
       <r>   24.1235    0.0000 </r>
      </set>
      <set comment="kpoint 4">
       <r>  -15.6059    1.0000 </r>
       <r>  -15.5055    1.0000 </r>
       <r>   -3.3873    1.0000 </r>
       <r>   -2.7101    1.0000 </r>
       <r>   -2.6686    1.0000 </r>
       <r>   -2.3563    1.0000 </r>
       <r>   -1.2244    1.0000 </r>
       <r>   -1.1870    1.0000 </r>
       <r>    7.2193    0.0000 </r>
       <r>    9.9816    0.0000 </r>
       <r>   11.7131    0.0000 </r>
       <r>   11.9665    0.0000 </r>
       <r>   12.4884    0.0000 </r>
       <r>   14.7019    0.0000 </r>
       <r>   14.7281    0.0000 </r>
       <r>   15.8219    0.0000 </r>
       <r>   15.8679    0.0000 </r>
       <r>   17.3719    0.0000 </r>
       <r>   20.8593    0.0000 </r>
       <r>   22.4473    0.0000 </r>
      </set>
      <set comment="kpoint 5">
       <r>  -15.0565    1.0000 </r>
       <r>  -14.9645    1.0000 </r>
       <r>   -4.1640    1.0000 </r>
       <r>   -4.1179    1.0000 </r>
       <r>   -2.6139    1.0000 </r>
       <r>   -1.7932    1.0000 </r>
       <r>   -1.7551    1.0000 </r>
       <r>   -1.6529    1.0000 </r>
       <r>    8.0742    0.0000 </r>
       <r>    9.3309    0.0000 </r>
       <r>   10.2403    0.0000 </r>
       <r>   11.6798    0.0000 </r>
       <r>   12.3509    0.0000 </r>
       <r>   14.4386    0.0000 </r>
       <r>   15.8036    0.0000 </r>
       <r>   17.7219    0.0000 </r>
       <r>   17.7756    0.0000 </r>
       <r>   18.3994    0.0000 </r>
       <r>   20.8387    0.0000 </r>
       <r>   21.1062    0.0000 </r>
      </set>
      <set comment="kpoint 6">
       <r>  -14.4147    1.0000 </r>
       <r>  -14.3341    1.0000 </r>
       <r>   -5.5698    1.0000 </r>
       <r>   -5.5180    1.0000 </r>
       <r>   -2.2771    1.0000 </r>
       <r>   -2.2384    1.0000 </r>
       <r>   -1.6823    1.0000 </r>
       <r>   -0.8322    1.0000 </r>
       <r>    8.1677    0.0000 </r>
       <r>    8.7393    0.0000 </r>
       <r>    9.0711    0.0000 </r>
       <r>   11.4357    0.0000 </r>
       <r>   12.3149    0.0000 </r>
       <r>   14.6919    0.0000 </r>
       <r>   16.5897    0.0000 </r>
       <r>   18.9483    0.0000 </r>
       <r>   19.4893    0.0000 </r>
       <r>   19.7268    0.0000 </r>
       <r>   19.8007    0.0000 </r>
       <r>   20.8866    0.0000 </r>
      </set>
      <set comment="kpoint 7">
       <r>  -13.7752    1.0000 </r>
       <r>  -13.7105    1.0000 </r>
       <r>   -6.7513    1.0000 </r>
       <r>   -6.6940    1.0000 </r>
       <r>   -2.6231    1.0000 </r>
       <r>   -2.5841    1.0000 </r>
       <r>   -0.6928    1.0000 </r>
       <r>   -0.0271    1.0000 </r>
       <r>    6.8450    0.0000 </r>
       <r>    7.4342    0.0000 </r>
       <r>   10.0578    0.0000 </r>
       <r>   11.2396    0.0000 </r>
       <r>   12.5406    0.0000 </r>
       <r>   15.2665    0.0000 </r>
       <r>   16.1619    0.0000 </r>
       <r>   18.4043    0.0000 </r>
       <r>   19.1649    0.0000 </r>
       <r>   21.1905    0.0000 </r>
       <r>   21.5336    0.0000 </r>
       <r>   22.5788    0.0000 </r>
      </set>
      <set comment="kpoint 8">
       <r>  -13.3311    1.0000 </r>
       <r>  -13.2842    1.0000 </r>
       <r>   -7.4713    1.0000 </r>
       <r>   -7.4111    1.0000 </r>
       <r>   -2.8025    1.0000 </r>
       <r>   -2.7633    1.0000 </r>
       <r>    0.0985    1.0000 </r>
       <r>    0.4778    1.0000 </r>
       <r>    5.9263    0.0000 </r>
       <r>    6.5773    0.0000 </r>
       <r>   10.7141    0.0000 </r>
       <r>   11.0659    0.0000 </r>
       <r>   13.2994    0.0000 </r>
       <r>   14.7870    0.0000 </r>
       <r>   15.8641    0.0000 </r>
       <r>   17.6273    0.0000 </r>
       <r>   19.6305    0.0000 </r>
       <r>   21.4803    0.0000 </r>
       <r>   22.4591    0.0000 </r>
       <r>   22.6766    0.0000 </r>
      </set>
      <set comment="kpoint 9">
       <r>  -16.1024    1.0000 </r>
       <r>  -15.9951    1.0000 </r>
       <r>   -4.0749    1.0000 </r>
       <r>   -2.9920    1.0000 </r>
       <r>   -1.0526    1.0000 </r>
       <r>   -1.0171    1.0000 </r>
       <r>   -0.5536    1.0000 </r>
       <r>   -0.5182    1.0000 </r>
       <r>    6.4181    0.0000 </r>
       <r>   10.1662    0.0000 </r>
       <r>   12.5401    0.0000 </r>
       <r>   12.7864    0.0000 </r>
       <r>   13.0891    0.0000 </r>
       <r>   13.1928    0.0000 </r>
       <r>   13.8100    0.0000 </r>
       <r>   14.0982    0.0000 </r>
       <r>   15.5256    0.0000 </r>
       <r>   16.1469    0.0000 </r>
       <r>   20.1339    0.0000 </r>
       <r>   24.4948    0.0000 </r>
      </set>
      <set comment="kpoint 10">
       <r>  -15.7689    1.0000 </r>
       <r>  -15.6662    1.0000 </r>
       <r>   -3.6141    1.0000 </r>
       <r>   -2.5651    1.0000 </r>
       <r>   -2.1388    1.0000 </r>
       <r>   -2.1009    1.0000 </r>
       <r>   -1.1149    1.0000 </r>
       <r>   -1.0786    1.0000 </r>
       <r>    6.9716    0.0000 </r>
       <r>   10.0913    0.0000 </r>
       <r>   12.1985    0.0000 </r>
       <r>   12.4431    0.0000 </r>
       <r>   12.7854    0.0000 </r>
       <r>   13.7286    0.0000 </r>
       <r>   14.8300    0.0000 </r>
       <r>   14.9095    0.0000 </r>
       <r>   15.4852    0.0000 </r>
       <r>   17.1949    0.0000 </r>
       <r>   20.6944    0.0000 </r>
       <r>   22.9169    0.0000 </r>
      </set>
      <set comment="kpoint 11">
       <r>  -15.2867    1.0000 </r>
       <r>  -15.1910    1.0000 </r>
       <r>   -3.4810    1.0000 </r>
       <r>   -3.4391    1.0000 </r>
       <r>   -2.9403    1.0000 </r>
       <r>   -1.9476    1.0000 </r>
       <r>   -1.7307    1.0000 </r>
       <r>   -1.6931    1.0000 </r>
       <r>    7.7419    0.0000 </r>
       <r>    9.6812    0.0000 </r>
       <r>   10.8751    0.0000 </r>
       <r>   12.1848    0.0000 </r>
       <r>   12.7124    0.0000 </r>
       <r>   14.4733    0.0000 </r>
       <r>   14.8301    0.0000 </r>
       <r>   16.2190    0.0000 </r>
       <r>   17.1258    0.0000 </r>
       <r>   18.5146    0.0000 </r>
       <r>   21.1630    0.0000 </r>
       <r>   21.1930    0.0000 </r>
      </set>
      <set comment="kpoint 12">
       <r>  -14.6869    1.0000 </r>
       <r>  -14.6011    1.0000 </r>
       <r>   -4.8852    1.0000 </r>
       <r>   -4.8377    1.0000 </r>
       <r>   -2.2867    1.0000 </r>
       <r>   -2.2481    1.0000 </r>
       <r>   -2.0837    1.0000 </r>
       <r>   -1.1794    1.0000 </r>
       <r>    8.6956    0.0000 </r>
       <r>    8.7604    0.0000 </r>
       <r>    9.4008    0.0000 </r>
       <r>   11.9288    0.0000 </r>
       <r>   12.6370    0.0000 </r>
       <r>   14.4966    0.0000 </r>
       <r>   15.9642    0.0000 </r>
       <r>   17.7167    0.0000 </r>
       <r>   18.8963    0.0000 </r>
       <r>   19.6445    0.0000 </r>
       <r>   19.7793    0.0000 </r>
       <r>   21.1772    0.0000 </r>
      </set>
      <set comment="kpoint 13">
       <r>  -14.0344    1.0000 </r>
       <r>  -13.9620    1.0000 </r>
       <r>   -6.1739    1.0000 </r>
       <r>   -6.1203    1.0000 </r>
       <r>   -2.7180    1.0000 </r>
       <r>   -2.6785    1.0000 </r>
       <r>   -1.1094    1.0000 </r>
       <r>   -0.3477    1.0000 </r>
       <r>    7.4841    0.0000 </r>
       <r>    8.0099    0.0000 </r>
       <r>    9.7593    0.0000 </r>
       <r>   11.7121    0.0000 </r>
       <r>   12.6742    0.0000 </r>
       <r>   14.9064    0.0000 </r>
       <r>   16.4623    0.0000 </r>
       <r>   18.4472    0.0000 </r>
       <r>   18.7223    0.0000 </r>
       <r>   20.2624    0.0000 </r>
       <r>   20.7104    0.0000 </r>
       <r>   21.6811    0.0000 </r>
      </set>
      <set comment="kpoint 14">
       <r>  -13.4668    1.0000 </r>
       <r>  -13.4121    1.0000 </r>
       <r>   -7.1417    1.0000 </r>
       <r>   -7.0833    1.0000 </r>
       <r>   -2.9886    1.0000 </r>
       <r>   -2.9487    1.0000 </r>
       <r>   -0.1760    1.0000 </r>
       <r>    0.3480    1.0000 </r>
       <r>    6.3132    0.0000 </r>
       <r>    6.9099    0.0000 </r>
       <r>   10.7113    0.0000 </r>
       <r>   11.5272    0.0000 </r>
       <r>   13.0470    0.0000 </r>
       <r>   15.4647    0.0000 </r>
       <r>   15.5503    0.0000 </r>
       <r>   17.5617    0.0000 </r>
       <r>   19.3003    0.0000 </r>
       <r>   21.0191    0.0000 </r>
       <r>   21.3687    0.0000 </r>
       <r>   22.0987    0.0000 </r>
      </set>
      <set comment="kpoint 15">
       <r>  -13.2238    1.0000 </r>
       <r>  -13.1809    1.0000 </r>
       <r>   -7.5186    1.0000 </r>
       <r>   -7.4586    1.0000 </r>
       <r>   -3.0806    1.0000 </r>
       <r>   -3.0405    1.0000 </r>
       <r>    0.3038    1.0000 </r>
       <r>    0.5921    1.0000 </r>
       <r>    5.8169    0.0000 </r>
       <r>    6.4486    0.0000 </r>
       <r>   11.1721    0.0000 </r>
       <r>   11.3614    0.0000 </r>
       <r>   13.7851    0.0000 </r>
       <r>   14.4355    0.0000 </r>
       <r>   15.8007    0.0000 </r>
       <r>   17.1446    0.0000 </r>
       <r>   19.6165    0.0000 </r>
       <r>   21.2448    0.0000 </r>
       <r>   21.3425    0.0000 </r>
       <r>   22.6746    0.0000 </r>
      </set>
      <set comment="kpoint 16">
       <r>  -15.3647    1.0000 </r>
       <r>  -15.2678    1.0000 </r>
       <r>   -3.1356    1.0000 </r>
       <r>   -3.0990    1.0000 </r>
       <r>   -3.0504    1.0000 </r>
       <r>   -2.0474    1.0000 </r>
       <r>   -1.8314    1.0000 </r>
       <r>   -1.7957    1.0000 </r>
       <r>    7.6414    0.0000 </r>
       <r>    9.7957    0.0000 </r>
       <r>   11.1207    0.0000 </r>
       <r>   13.0360    0.0000 </r>
       <r>   13.1960    0.0000 </r>
       <r>   13.7175    0.0000 </r>
       <r>   14.5085    0.0000 </r>
       <r>   15.2704    0.0000 </r>
       <r>   17.0147    0.0000 </r>
       <r>   18.6205    0.0000 </r>
       <r>   21.1305    0.0000 </r>
       <r>   21.2463    0.0000 </r>
      </set>
      <set comment="kpoint 17">
       <r>  -14.8281    1.0000 </r>
       <r>  -14.7396    1.0000 </r>
       <r>   -4.3128    1.0000 </r>
       <r>   -4.2736    1.0000 </r>
       <r>   -2.5524    1.0000 </r>
       <r>   -2.5151    1.0000 </r>
       <r>   -2.2895    1.0000 </r>
       <r>   -1.3595    1.0000 </r>
       <r>    8.5334    0.0000 </r>
       <r>    9.1072    0.0000 </r>
       <r>    9.8252    0.0000 </r>
       <r>   13.0433    0.0000 </r>
       <r>   13.4628    0.0000 </r>
       <r>   14.3987    0.0000 </r>
       <r>   14.6422    0.0000 </r>
       <r>   16.1318    0.0000 </r>
       <r>   18.5291    0.0000 </r>
       <r>   19.3704    0.0000 </r>
       <r>   20.1404    0.0000 </r>
       <r>   21.5861    0.0000 </r>
      </set>
      <set comment="kpoint 18">
       <r>  -14.2045    1.0000 </r>
       <r>  -14.1275    1.0000 </r>
       <r>   -5.5383    1.0000 </r>
       <r>   -5.4923    1.0000 </r>
       <r>   -3.1309    1.0000 </r>
       <r>   -3.0910    1.0000 </r>
       <r>   -1.3760    1.0000 </r>
       <r>   -0.5600    1.0000 </r>
       <r>    8.0435    0.0000 </r>
       <r>    8.4812    0.0000 </r>
       <r>    9.6092    0.0000 </r>
       <r>   12.8347    0.0000 </r>
       <r>   13.5169    0.0000 </r>
       <r>   14.5945    0.0000 </r>
       <r>   15.7907    0.0000 </r>
       <r>   17.3682    0.0000 </r>
       <r>   17.9401    0.0000 </r>
       <r>   19.8680    0.0000 </r>
       <r>   20.6476    0.0000 </r>
       <r>   21.0066    0.0000 </r>
      </set>
      <set comment="kpoint 19">
       <r>  -13.5890    1.0000 </r>
       <r>  -13.5273    1.0000 </r>
       <r>   -6.6099    1.0000 </r>
       <r>   -6.5567    1.0000 </r>
       <r>   -3.5251    1.0000 </r>
       <r>   -3.4833    1.0000 </r>
       <r>   -0.4110    1.0000 </r>
       <r>    0.2205    1.0000 </r>
       <r>    6.8445    0.0000 </r>
       <r>    7.3038    0.0000 </r>
       <r>   10.7851    0.0000 </r>
       <r>   12.6311    0.0000 </r>
       <r>   13.5832    0.0000 </r>
       <r>   14.9271    0.0000 </r>
       <r>   16.0801    0.0000 </r>
       <r>   16.9106    0.0000 </r>
       <r>   18.4909    0.0000 </r>
       <r>   20.2293    0.0000 </r>
       <r>   20.5154    0.0000 </r>
       <r>   21.2027    0.0000 </r>
      </set>
      <set comment="kpoint 20">
       <r>  -13.1668    1.0000 </r>
       <r>  -13.1216    1.0000 </r>
       <r>   -7.2720    1.0000 </r>
       <r>   -7.2144    1.0000 </r>
       <r>   -3.7242    1.0000 </r>
       <r>   -3.6815    1.0000 </r>
       <r>    0.3548    1.0000 </r>
       <r>    0.7081    1.0000 </r>
       <r>    5.9961    0.0000 </r>
       <r>    6.5311    0.0000 </r>
       <r>   11.7983    0.0000 </r>
       <r>   12.3994    0.0000 </r>
       <r>   13.9137    0.0000 </r>
       <r>   15.1727    0.0000 </r>
       <r>   15.2222    0.0000 </r>
       <r>   16.3015    0.0000 </r>
       <r>   19.2425    0.0000 </r>
       <r>   20.4323    0.0000 </r>
       <r>   20.8075    0.0000 </r>
       <r>   21.9401    0.0000 </r>
      </set>
      <set comment="kpoint 21">
       <r>  -14.2636    1.0000 </r>
       <r>  -14.1850    1.0000 </r>
       <r>   -5.1874    1.0000 </r>
       <r>   -5.1513    1.0000 </r>
       <r>   -3.4190    1.0000 </r>
       <r>   -3.3815    1.0000 </r>
       <r>   -1.4675    1.0000 </r>
       <r>   -0.6341    1.0000 </r>
       <r>    8.2759    0.0000 </r>
       <r>    8.6671    0.0000 </r>
       <r>    9.5544    0.0000 </r>
       <r>   14.1376    0.0000 </r>
       <r>   14.2994    0.0000 </r>
       <r>   14.4693    0.0000 </r>
       <r>   14.6194    0.0000 </r>
       <r>   16.2757    0.0000 </r>
       <r>   17.6549    0.0000 </r>
       <r>   19.6798    0.0000 </r>
       <r>   20.7225    0.0000 </r>
       <r>   21.4321    0.0000 </r>
      </set>
      <set comment="kpoint 22">
       <r>  -13.6601    1.0000 </r>
       <r>  -13.5947    1.0000 </r>
       <r>   -6.0803    1.0000 </r>
       <r>   -6.0387    1.0000 </r>
       <r>   -4.0915    1.0000 </r>
       <r>   -4.0508    1.0000 </r>
       <r>   -0.5427    1.0000 </r>
       <r>    0.1420    1.0000 </r>
       <r>    7.2786    0.0000 </r>
       <r>    7.5457    0.0000 </r>
       <r>   10.7565    0.0000 </r>
       <r>   14.0624    0.0000 </r>
       <r>   14.5429    0.0000 </r>
       <r>   14.7293    0.0000 </r>
       <r>   15.6448    0.0000 </r>
       <r>   16.3146    0.0000 </r>
       <r>   17.1475    0.0000 </r>
       <r>   20.0964    0.0000 </r>
       <r>   20.2676    0.0000 </r>
       <r>   20.7509    0.0000 </r>
      </set>
      <set comment="kpoint 23">
       <r>  -13.1490    1.0000 </r>
       <r>  -13.0993    1.0000 </r>
       <r>   -6.8153    1.0000 </r>
       <r>   -6.7645    1.0000 </r>
       <r>   -4.4870    1.0000 </r>
       <r>   -4.4425    1.0000 </r>
       <r>    0.3284    1.0000 </r>
       <r>    0.7814    1.0000 </r>
       <r>    6.3342    0.0000 </r>
       <r>    6.6761    0.0000 </r>
       <r>   12.0477    0.0000 </r>
       <r>   13.7978    0.0000 </r>
       <r>   14.5609    0.0000 </r>
       <r>   14.7527    0.0000 </r>
       <r>   15.4519    0.0000 </r>
       <r>   15.9776    0.0000 </r>
       <r>   18.3471    0.0000 </r>
       <r>   20.1006    0.0000 </r>
       <r>   20.1339    0.0000 </r>
       <r>   20.8961    0.0000 </r>
      </set>
      <set comment="kpoint 24">
       <r>  -12.9360    1.0000 </r>
       <r>  -12.8960    1.0000 </r>
       <r>   -7.1113    1.0000 </r>
       <r>   -7.0564    1.0000 </r>
       <r>   -4.6154    1.0000 </r>
       <r>   -4.5695    1.0000 </r>
       <r>    0.7689    1.0000 </r>
       <r>    1.0025    1.0000 </r>
       <r>    5.9206    0.0000 </r>
       <r>    6.3162    0.0000 </r>
       <r>   13.0311    0.0000 </r>
       <r>   13.3613    0.0000 </r>
       <r>   14.5761    0.0000 </r>
       <r>   14.7250    0.0000 </r>
       <r>   15.1324    0.0000 </r>
       <r>   15.6972    0.0000 </r>
       <r>   19.0333    0.0000 </r>
       <r>   20.2441    0.0000 </r>
       <r>   20.3698    0.0000 </r>
       <r>   20.9540    0.0000 </r>
      </set>
      <set comment="kpoint 25">
       <r>  -13.1468    1.0000 </r>
       <r>  -13.0952    1.0000 </r>
       <r>   -6.4953    1.0000 </r>
       <r>   -6.4564    1.0000 </r>
       <r>   -4.9135    1.0000 </r>
       <r>   -4.8723    1.0000 </r>
       <r>    0.3105    1.0000 </r>
       <r>    0.8025    1.0000 </r>
       <r>    6.5509    0.0000 </r>
       <r>    6.7036    0.0000 </r>
       <r>   12.0596    0.0000 </r>
       <r>   14.2749    0.0000 </r>
       <r>   14.7017    0.0000 </r>
       <r>   15.1013    0.0000 </r>
       <r>   15.5035    0.0000 </r>
       <r>   16.2860    0.0000 </r>
       <r>   17.4294    0.0000 </r>
       <r>   19.8865    0.0000 </r>
       <r>   19.9958    0.0000 </r>
       <r>   20.4649    0.0000 </r>
      </set>
      <set comment="kpoint 26">
       <r>  -12.8146    1.0000 </r>
       <r>  -12.7752    1.0000 </r>
       <r>   -6.7495    1.0000 </r>
       <r>   -6.7033    1.0000 </r>
       <r>   -5.3805    1.0000 </r>
       <r>   -5.3359    1.0000 </r>
       <r>    0.9599    1.0000 </r>
       <r>    1.1956    1.0000 </r>
       <r>    6.0053    0.0000 </r>
       <r>    6.1977    0.0000 </r>
       <r>   13.3671    0.0000 </r>
       <r>   14.0299    0.0000 </r>
       <r>   14.4114    0.0000 </r>
       <r>   14.4580    0.0000 </r>
       <r>   15.5117    0.0000 </r>
       <r>   16.8752    0.0000 </r>
       <r>   18.5110    0.0000 </r>
       <r>   19.6819    0.0000 </r>
       <r>   20.0774    0.0000 </r>
       <r>   20.2855    0.0000 </r>
      </set>
      <set comment="kpoint 27">
       <r>  -12.6882    1.0000 </r>
       <r>  -12.6528    1.0000 </r>
       <r>   -6.5576    1.0000 </r>
       <r>   -6.5275    1.0000 </r>
       <r>   -5.8590    1.0000 </r>
       <r>   -5.8271    1.0000 </r>
       <r>    1.2620    1.0000 </r>
       <r>    1.3105    1.0000 </r>
       <r>    5.8944    0.0000 </r>
       <r>    6.0030    0.0000 </r>
       <r>   13.7808    0.0000 </r>
       <r>   14.1169    0.0000 </r>
       <r>   14.2407    0.0000 </r>
       <r>   14.3652    0.0000 </r>
       <r>   15.5760    0.0000 </r>
       <r>   17.6947    0.0000 </r>
       <r>   19.0459    0.0000 </r>
       <r>   19.2362    0.0000 </r>
       <r>   19.7342    0.0000 </r>
       <r>   20.3275    0.0000 </r>
      </set>
      <set comment="kpoint 28">
       <r>  -16.3343    1.0000 </r>
       <r>  -16.2716    1.0000 </r>
       <r>   -4.1810    1.0000 </r>
       <r>   -3.6322    1.0000 </r>
       <r>   -0.0546    1.0000 </r>
       <r>   -0.0545    1.0000 </r>
       <r>   -0.0193    1.0000 </r>
       <r>   -0.0192    1.0000 </r>
       <r>    6.7866    0.0000 </r>
       <r>    8.7056    0.0000 </r>
       <r>   12.8063    0.0000 </r>
       <r>   12.8063    0.0000 </r>
       <r>   12.8411    0.0000 </r>
       <r>   12.8411    0.0000 </r>
       <r>   13.1856    0.0000 </r>
       <r>   13.8056    0.0000 </r>
       <r>   15.4542    0.0000 </r>
       <r>   15.8449    0.0000 </r>
       <r>   21.1056    0.0000 </r>
       <r>   24.0088    0.0000 </r>
      </set>
      <set comment="kpoint 29">
       <r>  -16.2489    1.0000 </r>
       <r>  -16.1868    1.0000 </r>
       <r>   -4.0653    1.0000 </r>
       <r>   -3.5203    1.0000 </r>
       <r>   -0.4170    1.0000 </r>
       <r>   -0.3818    1.0000 </r>
       <r>   -0.2214    1.0000 </r>
       <r>   -0.1861    1.0000 </r>
       <r>    6.9328    0.0000 </r>
       <r>    8.8113    0.0000 </r>
       <r>   12.6922    0.0000 </r>
       <r>   12.7738    0.0000 </r>
       <r>   13.1855    0.0000 </r>
       <r>   13.2203    0.0000 </r>
       <r>   13.3007    0.0000 </r>
       <r>   13.6385    0.0000 </r>
       <r>   15.6369    0.0000 </r>
       <r>   15.7938    0.0000 </r>
       <r>   21.1984    0.0000 </r>
       <r>   23.9217    0.0000 </r>
      </set>
      <set comment="kpoint 30">
       <r>  -15.9959    1.0000 </r>
       <r>  -15.9353    1.0000 </r>
       <r>   -3.7214    1.0000 </r>
       <r>   -3.1887    1.0000 </r>
       <r>   -1.3825    1.0000 </r>
       <r>   -1.3468    1.0000 </r>
       <r>   -0.6573    1.0000 </r>
       <r>   -0.6219    1.0000 </r>
       <r>    7.3333    0.0000 </r>
       <r>    9.0724    0.0000 </r>
       <r>   12.4037    0.0000 </r>
       <r>   12.5754    0.0000 </r>
       <r>   13.0437    0.0000 </r>
       <r>   13.3510    0.0000 </r>
       <r>   14.2483    0.0000 </r>
       <r>   14.2835    0.0000 </r>
       <r>   15.8697    0.0000 </r>
       <r>   16.2539    0.0000 </r>
       <r>   21.4228    0.0000 </r>
       <r>   23.4719    0.0000 </r>
      </set>
      <set comment="kpoint 31">
       <r>  -15.5851    1.0000 </r>
       <r>  -15.5269    1.0000 </r>
       <r>   -3.1662    1.0000 </r>
       <r>   -2.7475    1.0000 </r>
       <r>   -2.6753    1.0000 </r>
       <r>   -2.5886    1.0000 </r>
       <r>   -1.2233    1.0000 </r>
       <r>   -1.1878    1.0000 </r>
       <r>    7.9155    0.0000 </r>
       <r>    9.3205    0.0000 </r>
       <r>   11.7862    0.0000 </r>
       <r>   11.9451    0.0000 </r>
       <r>   12.5587    0.0000 </r>
       <r>   13.0959    0.0000 </r>
       <r>   15.8267    0.0000 </r>
       <r>   15.8631    0.0000 </r>
       <r>   16.4084    0.0000 </r>
       <r>   17.1824    0.0000 </r>
       <r>   21.5368    0.0000 </r>
       <r>   22.4362    0.0000 </r>
      </set>
      <set comment="kpoint 32">
       <r>  -15.0382    1.0000 </r>
       <r>  -14.9835    1.0000 </r>
       <r>   -4.1614    1.0000 </r>
       <r>   -4.1248    1.0000 </r>
       <r>   -2.3937    1.0000 </r>
       <r>   -1.9158    1.0000 </r>
       <r>   -1.7919    1.0000 </r>
       <r>   -1.7564    1.0000 </r>
       <r>    8.5300    0.0000 </r>
       <r>    9.1511    0.0000 </r>
       <r>   10.5498    0.0000 </r>
       <r>   11.4233    0.0000 </r>
       <r>   12.4044    0.0000 </r>
       <r>   12.9847    0.0000 </r>
       <r>   17.1796    0.0000 </r>
       <r>   17.7284    0.0000 </r>
       <r>   17.7675    0.0000 </r>
       <r>   18.1355    0.0000 </r>
       <r>   20.7836    0.0000 </r>
       <r>   21.5266    0.0000 </r>
      </set>
      <set comment="kpoint 33">
       <r>  -14.3996    1.0000 </r>
       <r>  -14.3495    1.0000 </r>
       <r>   -5.5641    1.0000 </r>
       <r>   -5.5255    1.0000 </r>
       <r>   -2.2755    1.0000 </r>
       <r>   -2.2399    1.0000 </r>
       <r>   -1.4857    1.0000 </r>
       <r>   -1.0615    1.0000 </r>
       <r>    8.1640    0.0000 </r>
       <r>    8.3581    0.0000 </r>
       <r>   10.1001    0.0000 </r>
       <r>   11.2218    0.0000 </r>
       <r>   12.4298    0.0000 </r>
       <r>   13.3174    0.0000 </r>
       <r>   17.5869    0.0000 </r>
       <r>   18.6382    0.0000 </r>
       <r>   19.6385    0.0000 </r>
       <r>   19.7385    0.0000 </r>
       <r>   19.7846    0.0000 </r>
       <r>   21.0038    0.0000 </r>
      </set>
      <set comment="kpoint 34">
       <r>  -13.7650    1.0000 </r>
       <r>  -13.7209    1.0000 </r>
       <r>   -6.7435    1.0000 </r>
       <r>   -6.7031    1.0000 </r>
       <r>   -2.6214    1.0000 </r>
       <r>   -2.5857    1.0000 </r>
       <r>   -0.5337    1.0000 </r>
       <r>   -0.1998    1.0000 </r>
       <r>    6.9197    0.0000 </r>
       <r>    7.2021    0.0000 </r>
       <r>   10.5983    0.0000 </r>
       <r>   11.1490    0.0000 </r>
       <r>   12.8291    0.0000 </r>
       <r>   14.0270    0.0000 </r>
       <r>   16.8905    0.0000 </r>
       <r>   17.9325    0.0000 </r>
       <r>   19.4998    0.0000 </r>
       <r>   21.0672    0.0000 </r>
       <r>   21.5498    0.0000 </r>
       <r>   21.6108    0.0000 </r>
      </set>
      <set comment="kpoint 35">
       <r>  -13.3269    1.0000 </r>
       <r>  -13.2886    1.0000 </r>
       <r>   -7.4625    1.0000 </r>
       <r>   -7.4213    1.0000 </r>
       <r>   -2.8008    1.0000 </r>
       <r>   -2.7651    1.0000 </r>
       <r>    0.1968    1.0000 </r>
       <r>    0.3897    1.0000 </r>
       <r>    6.0224    0.0000 </r>
       <r>    6.3421    0.0000 </r>
       <r>   10.9164    0.0000 </r>
       <r>   11.0762    0.0000 </r>
       <r>   13.7276    0.0000 </r>
       <r>   14.6131    0.0000 </r>
       <r>   15.8570    0.0000 </r>
       <r>   16.9501    0.0000 </r>
       <r>   19.6809    0.0000 </r>
       <r>   21.1448    0.0000 </r>
       <r>   22.6883    0.0000 </r>
       <r>   22.7531    0.0000 </r>
      </set>
      <set comment="kpoint 36">
       <r>  -16.0797    1.0000 </r>
       <r>  -16.0186    1.0000 </r>
       <r>   -3.8354    1.0000 </r>
       <r>   -3.2985    1.0000 </r>
       <r>   -1.0502    1.0000 </r>
       <r>   -1.0151    1.0000 </r>
       <r>   -0.5535    1.0000 </r>
       <r>   -0.5184    1.0000 </r>
       <r>    7.2071    0.0000 </r>
       <r>    8.9971    0.0000 </r>
       <r>   12.6583    0.0000 </r>
       <r>   12.7678    0.0000 </r>
       <r>   13.1288    0.0000 </r>
       <r>   13.2087    0.0000 </r>
       <r>   13.8336    0.0000 </r>
       <r>   13.9507    0.0000 </r>
       <r>   15.8345    0.0000 </r>
       <r>   16.0828    0.0000 </r>
       <r>   21.3596    0.0000 </r>
       <r>   23.6433    0.0000 </r>
      </set>
      <set comment="kpoint 37">
       <r>  -15.7475    1.0000 </r>
       <r>  -15.6884    1.0000 </r>
       <r>   -3.3833    1.0000 </r>
       <r>   -2.8657    1.0000 </r>
       <r>   -2.1316    1.0000 </r>
       <r>   -2.0960    1.0000 </r>
       <r>   -1.1143    1.0000 </r>
       <r>   -1.0791    1.0000 </r>
       <r>    7.7057    0.0000 </r>
       <r>    9.2662    0.0000 </r>
       <r>   12.2608    0.0000 </r>
       <r>   12.4069    0.0000 </r>
       <r>   12.8133    0.0000 </r>
       <r>   13.0905    0.0000 </r>
       <r>   14.8039    0.0000 </r>
       <r>   14.8447    0.0000 </r>
       <r>   16.4237    0.0000 </r>
       <r>   17.0423    0.0000 </r>
       <r>   21.5468    0.0000 </r>
       <r>   22.7693    0.0000 </r>
      </set>
      <set comment="kpoint 38">
       <r>  -15.2673    1.0000 </r>
       <r>  -15.2111    1.0000 </r>
       <r>   -3.4823    1.0000 </r>
       <r>   -3.4478    1.0000 </r>
       <r>   -2.7103    1.0000 </r>
       <r>   -2.2190    1.0000 </r>
       <r>   -1.7294    1.0000 </r>
       <r>   -1.6938    1.0000 </r>
       <r>    8.3372    0.0000 </r>
       <r>    9.3365    0.0000 </r>
       <r>   11.0947    0.0000 </r>
       <r>   11.8560    0.0000 </r>
       <r>   12.7314    0.0000 </r>
       <r>   13.0424    0.0000 </r>
       <r>   15.9044    0.0000 </r>
       <r>   16.1716    0.0000 </r>
       <r>   17.6431    0.0000 </r>
       <r>   18.3085    0.0000 </r>
       <r>   21.0973    0.0000 </r>
       <r>   21.7196    0.0000 </r>
      </set>
      <set comment="kpoint 39">
       <r>  -14.6703    1.0000 </r>
       <r>  -14.6181    1.0000 </r>
       <r>   -4.8813    1.0000 </r>
       <r>   -4.8441    1.0000 </r>
       <r>   -2.2855    1.0000 </r>
       <r>   -2.2501    1.0000 </r>
       <r>   -1.8753    1.0000 </r>
       <r>   -1.4250    1.0000 </r>
       <r>    8.6345    0.0000 </r>
       <r>    8.7614    0.0000 </r>
       <r>   10.1676    0.0000 </r>
       <r>   11.5687    0.0000 </r>
       <r>   12.6774    0.0000 </r>
       <r>   13.1829    0.0000 </r>
       <r>   16.9685    0.0000 </r>
       <r>   17.5769    0.0000 </r>
       <r>   19.0439    0.0000 </r>
       <r>   19.5570    0.0000 </r>
       <r>   19.8184    0.0000 </r>
       <r>   21.1878    0.0000 </r>
      </set>
      <set comment="kpoint 40">
       <r>  -14.0218    1.0000 </r>
       <r>  -13.9749    1.0000 </r>
       <r>   -6.1674    1.0000 </r>
       <r>   -6.1282    1.0000 </r>
       <r>   -2.7162    1.0000 </r>
       <r>   -2.6805    1.0000 </r>
       <r>   -0.9306    1.0000 </r>
       <r>   -0.5497    1.0000 </r>
       <r>    7.5303    0.0000 </r>
       <r>    7.7678    0.0000 </r>
       <r>   10.5428    0.0000 </r>
       <r>   11.5249    0.0000 </r>
       <r>   12.8042    0.0000 </r>
       <r>   13.6905    0.0000 </r>
       <r>   17.1645    0.0000 </r>
       <r>   18.1684    0.0000 </r>
       <r>   18.9281    0.0000 </r>
       <r>   20.0257    0.0000 </r>
       <r>   20.8555    0.0000 </r>
       <r>   21.5867    0.0000 </r>
      </set>
      <set comment="kpoint 41">
       <r>  -13.4599    1.0000 </r>
       <r>  -13.4192    1.0000 </r>
       <r>   -7.1334    1.0000 </r>
       <r>   -7.0928    1.0000 </r>
       <r>   -2.9866    1.0000 </r>
       <r>   -2.9508    1.0000 </r>
       <r>   -0.0465    1.0000 </r>
       <r>    0.2176    1.0000 </r>
       <r>    6.4004    0.0000 </r>
       <r>    6.6925    0.0000 </r>
       <r>   11.0988    0.0000 </r>
       <r>   11.4766    0.0000 </r>
       <r>   13.3604    0.0000 </r>
       <r>   14.4068    0.0000 </r>
       <r>   16.2454    0.0000 </r>
       <r>   17.2951    0.0000 </r>
       <r>   19.1344    0.0000 </r>
       <r>   20.5883    0.0000 </r>
       <r>   21.9976    0.0000 </r>
       <r>   22.1929    0.0000 </r>
      </set>
      <set comment="kpoint 42">
       <r>  -13.2210    1.0000 </r>
       <r>  -13.1838    1.0000 </r>
       <r>   -7.5098    1.0000 </r>
       <r>   -7.4687    1.0000 </r>
       <r>   -3.0786    1.0000 </r>
       <r>   -3.0428    1.0000 </r>
       <r>    0.3814    1.0000 </r>
       <r>    0.5297    1.0000 </r>
       <r>    5.9115    0.0000 </r>
       <r>    6.2229    0.0000 </r>
       <r>   11.3202    0.0000 </r>
       <r>   11.4096    0.0000 </r>
       <r>   14.1258    0.0000 </r>
       <r>   14.5488    0.0000 </r>
       <r>   15.6501    0.0000 </r>
       <r>   16.7230    0.0000 </r>
       <r>   19.2096    0.0000 </r>
       <r>   20.6668    0.0000 </r>
       <r>   22.2677    0.0000 </r>
       <r>   22.6573    0.0000 </r>
      </set>
      <set comment="kpoint 43">
       <r>  -15.3450    1.0000 </r>
       <r>  -15.2883    1.0000 </r>
       <r>   -3.1437    1.0000 </r>
       <r>   -3.1135    1.0000 </r>
       <r>   -2.8084    1.0000 </r>
       <r>   -2.3196    1.0000 </r>
       <r>   -1.8307    1.0000 </r>
       <r>   -1.7955    1.0000 </r>
       <r>    8.2719    0.0000 </r>
       <r>    9.3878    0.0000 </r>
       <r>   11.3340    0.0000 </r>
       <r>   12.2519    0.0000 </r>
       <r>   13.1526    0.0000 </r>
       <r>   13.1833    0.0000 </r>
       <r>   15.0615    0.0000 </r>
       <r>   15.2374    0.0000 </r>
       <r>   17.7062    0.0000 </r>
       <r>   18.4128    0.0000 </r>
       <r>   21.1195    0.0000 </r>
       <r>   21.7336    0.0000 </r>
      </set>
      <set comment="kpoint 44">
       <r>  -14.8108    1.0000 </r>
       <r>  -14.7575    1.0000 </r>
       <r>   -4.3122    1.0000 </r>
       <r>   -4.2775    1.0000 </r>
       <r>   -2.5518    1.0000 </r>
       <r>   -2.5173    1.0000 </r>
       <r>   -2.0750    1.0000 </r>
       <r>   -1.6124    1.0000 </r>
       <r>    8.7701    0.0000 </r>
       <r>    9.0257    0.0000 </r>
       <r>   10.4029    0.0000 </r>
       <r>   12.0944    0.0000 </r>
       <r>   13.4374    0.0000 </r>
       <r>   13.4670    0.0000 </r>
       <r>   15.6773    0.0000 </r>
       <r>   16.0469    0.0000 </r>
       <r>   18.8703    0.0000 </r>
       <r>   19.4467    0.0000 </r>
       <r>   19.9996    0.0000 </r>
       <r>   21.2410    0.0000 </r>
      </set>
      <set comment="kpoint 45">
       <r>  -14.1906    1.0000 </r>
       <r>  -14.1419    1.0000 </r>
       <r>   -5.5345    1.0000 </r>
       <r>   -5.4977    1.0000 </r>
       <r>   -3.1290    1.0000 </r>
       <r>   -3.0935    1.0000 </r>
       <r>   -1.1860    1.0000 </r>
       <r>   -0.7786    1.0000 </r>
       <r>    8.0572    0.0000 </r>
       <r>    8.2211    0.0000 </r>
       <r>   10.5885    0.0000 </r>
       <r>   12.2724    0.0000 </r>
       <r>   13.5108    0.0000 </r>
       <r>   13.7069    0.0000 </r>
       <r>   16.4962    0.0000 </r>
       <r>   17.1668    0.0000 </r>
       <r>   18.2410    0.0000 </r>
       <r>   19.0958    0.0000 </r>
       <r>   20.7791    0.0000 </r>
       <r>   21.7749    0.0000 </r>
      </set>
      <set comment="kpoint 46">
       <r>  -13.5798    1.0000 </r>
       <r>  -13.5367    1.0000 </r>
       <r>   -6.6034    1.0000 </r>
       <r>   -6.5644    1.0000 </r>
       <r>   -3.5224    1.0000 </r>
       <r>   -3.4864    1.0000 </r>
       <r>   -0.2591    1.0000 </r>
       <r>    0.0578    1.0000 </r>
       <r>    6.9062    0.0000 </r>
       <r>    7.1285    0.0000 </r>
       <r>   11.4389    0.0000 </r>
       <r>   12.4118    0.0000 </r>
       <r>   13.6375    0.0000 </r>
       <r>   14.1407    0.0000 </r>
       <r>   16.3612    0.0000 </r>
       <r>   17.3066    0.0000 </r>
       <r>   18.1284    0.0000 </r>
       <r>   19.3882    0.0000 </r>
       <r>   21.1373    0.0000 </r>
       <r>   21.8157    0.0000 </r>
      </set>
      <set comment="kpoint 47">
       <r>  -13.1630    1.0000 </r>
       <r>  -13.1252    1.0000 </r>
       <r>   -7.2639    1.0000 </r>
       <r>   -7.2236    1.0000 </r>
       <r>   -3.7211    1.0000 </r>
       <r>   -3.6848    1.0000 </r>
       <r>    0.4468    1.0000 </r>
       <r>    0.6268    1.0000 </r>
       <r>    6.0797    0.0000 </r>
       <r>    6.3443    0.0000 </r>
       <r>   12.0963    0.0000 </r>
       <r>   12.3830    0.0000 </r>
       <r>   14.0514    0.0000 </r>
       <r>   14.5978    0.0000 </r>
       <r>   15.5824    0.0000 </r>
       <r>   16.7292    0.0000 </r>
       <r>   18.3276    0.0000 </r>
       <r>   19.8763    0.0000 </r>
       <r>   21.4506    0.0000 </r>
       <r>   21.8586    0.0000 </r>
      </set>
      <set comment="kpoint 48">
       <r>  -14.2492    1.0000 </r>
       <r>  -14.1999    1.0000 </r>
       <r>   -5.1872    1.0000 </r>
       <r>   -5.1531    1.0000 </r>
       <r>   -3.4180    1.0000 </r>
       <r>   -3.3833    1.0000 </r>
       <r>   -1.2739    1.0000 </r>
       <r>   -0.8579    1.0000 </r>
       <r>    8.2783    0.0000 </r>
       <r>    8.3898    0.0000 </r>
       <r>   10.5998    0.0000 </r>
       <r>   12.5680    0.0000 </r>
       <r>   14.1981    0.0000 </r>
       <r>   14.3102    0.0000 </r>
       <r>   15.6300    0.0000 </r>
       <r>   16.1426    0.0000 </r>
       <r>   17.9391    0.0000 </r>
       <r>   18.8110    0.0000 </r>
       <r>   20.9539    0.0000 </r>
       <r>   21.8479    0.0000 </r>
      </set>
      <set comment="kpoint 49">
       <r>  -13.6497    1.0000 </r>
       <r>  -13.6053    1.0000 </r>
       <r>   -6.0777    1.0000 </r>
       <r>   -6.0423    1.0000 </r>
       <r>   -4.0892    1.0000 </r>
       <r>   -4.0537    1.0000 </r>
       <r>   -0.3800    1.0000 </r>
       <r>   -0.0369    1.0000 </r>
       <r>    7.3016    0.0000 </r>
       <r>    7.4229    0.0000 </r>
       <r>   11.5100    0.0000 </r>
       <r>   13.0715    0.0000 </r>
       <r>   14.5406    0.0000 </r>
       <r>   14.6763    0.0000 </r>
       <r>   15.8474    0.0000 </r>
       <r>   16.6674    0.0000 </r>
       <r>   17.1917    0.0000 </r>
       <r>   18.4517    0.0000 </r>
       <r>   21.0358    0.0000 </r>
       <r>   21.9564    0.0000 </r>
      </set>
      <set comment="kpoint 50">
       <r>  -13.1438    1.0000 </r>
       <r>  -13.1046    1.0000 </r>
       <r>   -6.8094    1.0000 </r>
       <r>   -6.7713    1.0000 </r>
       <r>   -4.4834    1.0000 </r>
       <r>   -4.4467    1.0000 </r>
       <r>    0.4417    1.0000 </r>
       <r>    0.6706    1.0000 </r>
       <r>    6.3867    0.0000 </r>
       <r>    6.5554    0.0000 </r>
       <r>   12.5047    0.0000 </r>
       <r>   13.3601    0.0000 </r>
       <r>   14.5331    0.0000 </r>
       <r>   14.6414    0.0000 </r>
       <r>   15.5971    0.0000 </r>
       <r>   16.5820    0.0000 </r>
       <r>   17.8345    0.0000 </r>
       <r>   18.9930    0.0000 </r>
       <r>   20.6066    0.0000 </r>
       <r>   21.4553    0.0000 </r>
      </set>
      <set comment="kpoint 51">
       <r>  -12.9342    1.0000 </r>
       <r>  -12.8977    1.0000 </r>
       <r>   -7.1040    1.0000 </r>
       <r>   -7.0647    1.0000 </r>
       <r>   -4.6112    1.0000 </r>
       <r>   -4.5742    1.0000 </r>
       <r>    0.8323    1.0000 </r>
       <r>    0.9537    1.0000 </r>
       <r>    5.9858    0.0000 </r>
       <r>    6.1824    0.0000 </r>
       <r>   13.1093    0.0000 </r>
       <r>   13.3168    0.0000 </r>
       <r>   14.4872    0.0000 </r>
       <r>   14.5718    0.0000 </r>
       <r>   15.4873    0.0000 </r>
       <r>   16.4616    0.0000 </r>
       <r>   18.0125    0.0000 </r>
       <r>   19.4781    0.0000 </r>
       <r>   20.6162    0.0000 </r>
       <r>   21.3448    0.0000 </r>
      </set>
      <set comment="kpoint 52">
       <r>  -13.1410    1.0000 </r>
       <r>  -13.1011    1.0000 </r>
       <r>   -6.4934    1.0000 </r>
       <r>   -6.4589    1.0000 </r>
       <r>   -4.9111    1.0000 </r>
       <r>   -4.8756    1.0000 </r>
       <r>    0.4320    1.0000 </r>
       <r>    0.6801    1.0000 </r>
       <r>    6.5665    0.0000 </r>
       <r>    6.6374    0.0000 </r>
       <r>   12.5104    0.0000 </r>
       <r>   13.4698    0.0000 </r>
       <r>   14.9049    0.0000 </r>
       <r>   15.4715    0.0000 </r>
       <r>   15.6255    0.0000 </r>
       <r>   16.3050    0.0000 </r>
       <r>   17.4121    0.0000 </r>
       <r>   18.4766    0.0000 </r>
       <r>   20.2790    0.0000 </r>
       <r>   21.7262    0.0000 </r>
      </set>
      <set comment="kpoint 53">
       <r>  -12.8131    1.0000 </r>
       <r>  -12.7767    1.0000 </r>
       <r>   -6.7448    1.0000 </r>
       <r>   -6.7084    1.0000 </r>
       <r>   -5.3770    1.0000 </r>
       <r>   -5.3405    1.0000 </r>
       <r>    1.0228    1.0000 </r>
       <r>    1.1452    1.0000 </r>
       <r>    6.0364    0.0000 </r>
       <r>    6.1294    0.0000 </r>
       <r>   13.1342    0.0000 </r>
       <r>   13.5574    0.0000 </r>
       <r>   14.5330    0.0000 </r>
       <r>   15.5017    0.0000 </r>
       <r>   15.8497    0.0000 </r>
       <r>   16.7272    0.0000 </r>
       <r>   18.1270    0.0000 </r>
       <r>   19.0771    0.0000 </r>
       <r>   19.7679    0.0000 </r>
       <r>   21.0604    0.0000 </r>
      </set>
      <set comment="kpoint 54">
       <r>  -12.6881    1.0000 </r>
       <r>  -12.6527    1.0000 </r>
       <r>   -6.5580    1.0000 </r>
       <r>   -6.5261    1.0000 </r>
       <r>   -5.8608    1.0000 </r>
       <r>   -5.8278    1.0000 </r>
       <r>    1.2740    1.0000 </r>
       <r>    1.3140    1.0000 </r>
       <r>    5.9137    0.0000 </r>
       <r>    5.9594    0.0000 </r>
       <r>   13.1271    0.0000 </r>
       <r>   13.4764    0.0000 </r>
       <r>   14.6680    0.0000 </r>
       <r>   15.7905    0.0000 </r>
       <r>   16.1178    0.0000 </r>
       <r>   17.2069    0.0000 </r>
       <r>   18.4594    0.0000 </r>
       <r>   19.2213    0.0000 </r>
       <r>   19.4357    0.0000 </r>
       <r>   20.6847    0.0000 </r>
      </set>
     </set>
    </set>
   </array>
  </eigenvalues>
  <separator name="orbital magnetization" >
   <v name="MAGDIPOLOUT">      0.00000000      0.00000000      0.00000000</v>
  </separator>
  <dos>
   <i name="efermi">      1.57880590 </i>
   <total>
    <array>
     <dimension dim="1">gridpoints</dimension>
     <dimension dim="2">spin</dimension>
     <field>energy</field>
     <field>total</field>
     <field>integrated</field>
     <set>
      <set comment="spin 1">
       <r>   -18.4576     0.0000     0.0000 </r>
       <r>   -18.3036     0.0000     0.0000 </r>
       <r>   -18.1497     0.0000     0.0000 </r>
       <r>   -17.9957     0.0000     0.0000 </r>
       <r>   -17.8417     0.0000     0.0000 </r>
       <r>   -17.6877     0.0000     0.0000 </r>
       <r>   -17.5338     0.0000     0.0000 </r>
       <r>   -17.3798     0.0000     0.0000 </r>
       <r>   -17.2258     0.0000     0.0000 </r>
       <r>   -17.0718     0.0000     0.0000 </r>
       <r>   -16.9178     0.0000     0.0000 </r>
       <r>   -16.7639     0.0000     0.0000 </r>
       <r>   -16.6099     0.0000     0.0000 </r>
       <r>   -16.4559     0.0001     0.0000 </r>
       <r>   -16.3019     0.0972     0.0150 </r>
       <r>   -16.1479     0.6575     0.1162 </r>
       <r>   -15.9940     0.8518     0.2474 </r>
       <r>   -15.8400     0.5911     0.3384 </r>
       <r>   -15.6860     0.9790     0.4891 </r>
       <r>   -15.5320     0.8597     0.6215 </r>
       <r>   -15.3781     0.3196     0.6707 </r>
       <r>   -15.2241     1.4262     0.8903 </r>
       <r>   -15.0701     0.6524     0.9908 </r>
       <r>   -14.9161     0.5939     1.0822 </r>
       <r>   -14.7621     0.9345     1.2261 </r>
       <r>   -14.6082     1.5162     1.4596 </r>
       <r>   -14.4542     0.3644     1.5157 </r>
       <r>   -14.3002     0.6604     1.6174 </r>
       <r>   -14.1462     1.5745     1.8598 </r>
       <r>   -13.9923     1.2685     2.0551 </r>
       <r>   -13.8383     0.6321     2.1525 </r>
       <r>   -13.6843     0.7612     2.2697 </r>
       <r>   -13.5303     2.3274     2.6280 </r>
       <r>   -13.3763     1.6906     2.8883 </r>
       <r>   -13.2224     1.0108     3.0440 </r>
       <r>   -13.0684     3.6592     3.6074 </r>
       <r>   -12.9144     0.5987     3.6996 </r>
       <r>   -12.7604     1.4497     3.9228 </r>
       <r>   -12.6064     0.4889     3.9981 </r>
       <r>   -12.4525     0.0122     4.0000 </r>
       <r>   -12.2985     0.0000     4.0000 </r>
       <r>   -12.1445     0.0000     4.0000 </r>
       <r>   -11.9905     0.0000     4.0000 </r>
       <r>   -11.8366     0.0000     4.0000 </r>
       <r>   -11.6826     0.0000     4.0000 </r>
       <r>   -11.5286     0.0000     4.0000 </r>
       <r>   -11.3746     0.0000     4.0000 </r>
       <r>   -11.2206     0.0000     4.0000 </r>
       <r>   -11.0667     0.0000     4.0000 </r>
       <r>   -10.9127     0.0000     4.0000 </r>
       <r>   -10.7587     0.0000     4.0000 </r>
       <r>   -10.6047     0.0000     4.0000 </r>
       <r>   -10.4507     0.0000     4.0000 </r>
       <r>   -10.2968     0.0000     4.0000 </r>
       <r>   -10.1428     0.0000     4.0000 </r>
       <r>    -9.9888     0.0000     4.0000 </r>
       <r>    -9.8348     0.0000     4.0000 </r>
       <r>    -9.6809     0.0000     4.0000 </r>
       <r>    -9.5269     0.0000     4.0000 </r>
       <r>    -9.3729     0.0000     4.0000 </r>
       <r>    -9.2189     0.0000     4.0000 </r>
       <r>    -9.0649     0.0000     4.0000 </r>
       <r>    -8.9110     0.0000     4.0000 </r>
       <r>    -8.7570     0.0000     4.0000 </r>
       <r>    -8.6030     0.0000     4.0000 </r>
       <r>    -8.4490     0.0000     4.0000 </r>
       <r>    -8.2951     0.0000     4.0000 </r>
       <r>    -8.1411     0.0000     4.0000 </r>
       <r>    -7.9871     0.0000     4.0000 </r>
       <r>    -7.8331     0.0000     4.0000 </r>
       <r>    -7.6791     0.0000     4.0000 </r>
       <r>    -7.5252     0.1588     4.0245 </r>
       <r>    -7.3712     1.1919     4.2080 </r>
       <r>    -7.2172     1.0513     4.3699 </r>
       <r>    -7.0632     2.0572     4.6866 </r>
       <r>    -6.9092     0.3920     4.7470 </r>
       <r>    -6.7553     1.5978     4.9930 </r>
       <r>    -6.6013     2.3491     5.3547 </r>
       <r>    -6.4473     1.6578     5.6100 </r>
       <r>    -6.2933     0.1663     5.6356 </r>
       <r>    -6.1394     0.8294     5.7633 </r>
       <r>    -5.9854     1.8986     6.0556 </r>
       <r>    -5.8314     0.1870     6.0844 </r>
       <r>    -5.6774     0.0870     6.0978 </r>
       <r>    -5.5234     1.0697     6.2625 </r>
       <r>    -5.3695     1.5568     6.5022 </r>
       <r>    -5.2155     0.9232     6.6444 </r>
       <r>    -5.0615     0.6046     6.7375 </r>
       <r>    -4.9075     0.4421     6.8056 </r>
       <r>    -4.7536     1.6333     7.0571 </r>
       <r>    -4.5996     0.3052     7.1041 </r>
       <r>    -4.4456     1.3410     7.3106 </r>
       <r>    -4.2916     1.2641     7.5052 </r>
       <r>    -4.1376     1.1816     7.6871 </r>
       <r>    -3.9837     1.9806     7.9921 </r>
       <r>    -3.8297     0.2404     8.0291 </r>
       <r>    -3.6757     1.3568     8.2380 </r>
       <r>    -3.5217     1.3048     8.4389 </r>
       <r>    -3.3677     3.2630     8.9414 </r>
       <r>    -3.2138     0.7226     9.0526 </r>
       <r>    -3.0598     2.7578     9.4773 </r>
       <r>    -2.9058     2.2707     9.8269 </r>
       <r>    -2.7518     1.6664    10.0835 </r>
       <r>    -2.5979     3.0587    10.5545 </r>
       <r>    -2.4439     2.0027    10.8629 </r>
       <r>    -2.2899     1.1973    11.0472 </r>
       <r>    -2.1359     2.6061    11.4485 </r>
       <r>    -1.9819     1.7738    11.7216 </r>
       <r>    -1.8280     1.1517    11.8990 </r>
       <r>    -1.6740     2.3784    12.2652 </r>
       <r>    -1.5200     0.8637    12.3982 </r>
       <r>    -1.3660     1.3241    12.6021 </r>
       <r>    -1.2121     1.2671    12.7972 </r>
       <r>    -1.0581     2.6212    13.2008 </r>
       <r>    -0.9041     1.2426    13.3921 </r>
       <r>    -0.7501     0.7976    13.5149 </r>
       <r>    -0.5961     1.0493    13.6765 </r>
       <r>    -0.4422     1.9660    13.9792 </r>
       <r>    -0.2882     1.5558    14.2188 </r>
       <r>    -0.1342     1.4676    14.4447 </r>
       <r>     0.0198     1.3248    14.6487 </r>
       <r>     0.1738     0.8949    14.7865 </r>
       <r>     0.3277     1.2583    14.9803 </r>
       <r>     0.4817     2.0486    15.2957 </r>
       <r>     0.6357     0.9004    15.4344 </r>
       <r>     0.7897     1.3031    15.6350 </r>
       <r>     0.9436     0.5832    15.7248 </r>
       <r>     1.0976     0.8972    15.8629 </r>
       <r>     1.2516     0.6853    15.9685 </r>
       <r>     1.4056     0.2042    15.9999 </r>
       <r>     1.5596     0.0005    16.0000 </r>
       <r>     1.7135     0.0000    16.0000 </r>
       <r>     1.8675     0.0000    16.0000 </r>
       <r>     2.0215     0.0000    16.0000 </r>
       <r>     2.1755     0.0000    16.0000 </r>
       <r>     2.3295     0.0000    16.0000 </r>
       <r>     2.4834     0.0000    16.0000 </r>
       <r>     2.6374     0.0000    16.0000 </r>
       <r>     2.7914     0.0000    16.0000 </r>
       <r>     2.9454     0.0000    16.0000 </r>
       <r>     3.0993     0.0000    16.0000 </r>
       <r>     3.2533     0.0000    16.0000 </r>
       <r>     3.4073     0.0000    16.0000 </r>
       <r>     3.5613     0.0000    16.0000 </r>
       <r>     3.7153     0.0000    16.0000 </r>
       <r>     3.8692     0.0000    16.0000 </r>
       <r>     4.0232     0.0000    16.0000 </r>
       <r>     4.1772     0.0000    16.0000 </r>
       <r>     4.3312     0.0000    16.0000 </r>
       <r>     4.4851     0.0000    16.0000 </r>
       <r>     4.6391     0.0000    16.0000 </r>
       <r>     4.7931     0.0000    16.0000 </r>
       <r>     4.9471     0.0000    16.0000 </r>
       <r>     5.1011     0.0000    16.0000 </r>
       <r>     5.2550     0.0000    16.0000 </r>
       <r>     5.4090     0.0000    16.0000 </r>
       <r>     5.5630     0.0000    16.0000 </r>
       <r>     5.7170     0.0003    16.0000 </r>
       <r>     5.8710     0.1722    16.0266 </r>
       <r>     6.0249     1.5114    16.2593 </r>
       <r>     6.1789     1.7235    16.5247 </r>
       <r>     6.3329     1.1998    16.7094 </r>
       <r>     6.4869     1.7853    16.9843 </r>
       <r>     6.6408     1.4319    17.2048 </r>
       <r>     6.7948     0.9034    17.3439 </r>
       <r>     6.9488     1.3429    17.5507 </r>
       <r>     7.1028     0.4870    17.6256 </r>
       <r>     7.2568     1.0149    17.7819 </r>
       <r>     7.4107     1.2685    17.9772 </r>
       <r>     7.5647     1.1573    18.1554 </r>
       <r>     7.7187     0.6531    18.2560 </r>
       <r>     7.8727     0.7874    18.3772 </r>
       <r>     8.0266     0.5358    18.4597 </r>
       <r>     8.1806     1.0006    18.6138 </r>
       <r>     8.3346     1.3558    18.8226 </r>
       <r>     8.4886     0.8471    18.9530 </r>
       <r>     8.6426     0.8249    19.0800 </r>
       <r>     8.7965     1.6557    19.3350 </r>
       <r>     8.9505     0.4037    19.3971 </r>
       <r>     9.1045     1.0714    19.5621 </r>
       <r>     9.2585     0.6088    19.6558 </r>
       <r>     9.4125     1.3718    19.8671 </r>
       <r>     9.5664     0.2508    19.9057 </r>
       <r>     9.7204     0.4803    19.9796 </r>
       <r>     9.8744     0.5543    20.0650 </r>
       <r>    10.0284     0.1623    20.0900 </r>
       <r>    10.1823     1.1368    20.2650 </r>
       <r>    10.3363     0.3704    20.3221 </r>
       <r>    10.4903     0.4895    20.3974 </r>
       <r>    10.6443     1.5102    20.6300 </r>
       <r>    10.7983     0.7648    20.7478 </r>
       <r>    10.9522     0.5311    20.8295 </r>
       <r>    11.1062     0.9535    20.9764 </r>
       <r>    11.2602     1.1134    21.1478 </r>
       <r>    11.4142     0.9989    21.3016 </r>
       <r>    11.5681     2.4074    21.6723 </r>
       <r>    11.7221     0.6633    21.7744 </r>
       <r>    11.8761     0.9473    21.9203 </r>
       <r>    12.0301     0.8093    22.0449 </r>
       <r>    12.1841     1.3567    22.2538 </r>
       <r>    12.3380     1.7223    22.5190 </r>
       <r>    12.4920     2.9689    22.9761 </r>
       <r>    12.6460     2.0564    23.2928 </r>
       <r>    12.8000     3.0188    23.7576 </r>
       <r>    12.9540     1.5111    23.9903 </r>
       <r>    13.1079     2.9399    24.4430 </r>
       <r>    13.2619     3.1457    24.9273 </r>
       <r>    13.4159     2.4221    25.3003 </r>
       <r>    13.5699     2.3985    25.6696 </r>
       <r>    13.7238     2.1220    25.9964 </r>
       <r>    13.8778     1.4177    26.2147 </r>
       <r>    14.0318     0.8969    26.3528 </r>
       <r>    14.1858     1.7258    26.6185 </r>
       <r>    14.3398     1.3419    26.8251 </r>
       <r>    14.4937     2.1606    27.1578 </r>
       <r>    14.6477     4.1200    27.7922 </r>
       <r>    14.8017     2.2671    28.1413 </r>
       <r>    14.9557     1.9005    28.4339 </r>
       <r>    15.1097     0.4251    28.4994 </r>
       <r>    15.2636     0.8613    28.6320 </r>
       <r>    15.4176     0.4366    28.6992 </r>
       <r>    15.5716     2.5256    29.0881 </r>
       <r>    15.7256     2.4832    29.4705 </r>
       <r>    15.8795     2.8630    29.9113 </r>
       <r>    16.0335     1.6466    30.1648 </r>
       <r>    16.1875     1.8237    30.4457 </r>
       <r>    16.3415     2.0747    30.7651 </r>
       <r>    16.4955     1.8099    31.0438 </r>
       <r>    16.6494     1.0382    31.2037 </r>
       <r>    16.8034     1.4657    31.4294 </r>
       <r>    16.9574     0.9918    31.5821 </r>
       <r>    17.1114     1.1813    31.7640 </r>
       <r>    17.2653     2.6586    32.1733 </r>
       <r>    17.4193     1.2959    32.3729 </r>
       <r>    17.5733     0.6534    32.4735 </r>
       <r>    17.7273     1.7104    32.7369 </r>
       <r>    17.8813     1.0994    32.9061 </r>
       <r>    18.0352     0.8698    33.0401 </r>
       <r>    18.1892     1.5259    33.2750 </r>
       <r>    18.3432     1.4282    33.4949 </r>
       <r>    18.4972     1.9822    33.8002 </r>
       <r>    18.6512     0.9866    33.9521 </r>
       <r>    18.8051     0.4448    34.0206 </r>
       <r>    18.9591     1.3278    34.2250 </r>
       <r>    19.1131     1.9659    34.5277 </r>
       <r>    19.2671     1.2061    34.7134 </r>
       <r>    19.4210     1.0201    34.8705 </r>
       <r>    19.5750     1.4202    35.0892 </r>
       <r>    19.7290     1.6136    35.3376 </r>
       <r>    19.8830     2.2347    35.6817 </r>
       <r>    20.0370     1.1889    35.8648 </r>
       <r>    20.1909     1.4872    36.0938 </r>
       <r>    20.3449     1.4002    36.3094 </r>
[...]
        <r>  0.0030  0.0680  0.0025  0.0504  0.0000  0.0000  0.0000  0.0000  0.0000 </r>
       </set>
       <set comment="band 14">
        <r>  0.0368  0.0481  0.0001  0.0210  0.0000  0.0000  0.0000  0.0000  0.0000 </r>
        <r>  0.0180  0.0024  0.0013  0.0011  0.0000  0.0000  0.0000  0.0000  0.0000 </r>
        <r>  0.0254  0.1486  0.0010  0.0047  0.0000  0.0000  0.0000  0.0000  0.0000 </r>
        <r>  0.0005  0.0174  0.0060  0.0138  0.0000  0.0000  0.0000  0.0000  0.0000 </r>
       </set>
       <set comment="band 15">
        <r>  0.0117  0.0001  0.0116  0.0000  0.0000  0.0000  0.0000  0.0000  0.0000 </r>
        <r>  0.0257  0.0487  0.0041  0.0248  0.0000  0.0000  0.0000  0.0000  0.0000 </r>
        <r>  0.0009  0.0138  0.0012  0.0064  0.0000  0.0000  0.0000  0.0000  0.0000 </r>
        <r>  0.0205  0.1155  0.0014  0.0058  0.0000  0.0000  0.0000  0.0000  0.0000 </r>
       </set>
       <set comment="band 16">
        <r>  0.0811  0.0150  0.0002  0.0026  0.0000  0.0000  0.0000  0.0000  0.0000 </r>
        <r>  0.0000  0.0492  0.0021  0.0294  0.0000  0.0000  0.0000  0.0000  0.0000 </r>
        <r>  0.0231  0.0533  0.0002  0.0569  0.0000  0.0000  0.0000  0.0000  0.0000 </r>
        <r>  0.0281  0.0168  0.0021  0.0169  0.0000  0.0000  0.0000  0.0000  0.0000 </r>
       </set>
       <set comment="band 17">
        <r>  0.0325  0.1538  0.0001  0.1252  0.0000  0.0000  0.0000  0.0000  0.0000 </r>
        <r>  0.0261  0.0281  0.0147  0.0175  0.0000  0.0000  0.0000  0.0000  0.0000 </r>
        <r>  0.0418  0.0006  0.0009  0.0131  0.0000  0.0000  0.0000  0.0000  0.0000 </r>
        <r>  0.0099  0.0083  0.0028  0.0089  0.0000  0.0000  0.0000  0.0000  0.0000 </r>
       </set>
       <set comment="band 18">
        <r>  0.0005  0.0042  0.0082  0.0074  0.0000  0.0000  0.0000  0.0000  0.0000 </r>
        <r>  0.0391  0.1256  0.0135  0.0945  0.0000  0.0000  0.0000  0.0000  0.0000 </r>
        <r>  0.0004  0.0006  0.0059  0.0015  0.0000  0.0000  0.0000  0.0000  0.0000 </r>
        <r>  0.0415  0.0114  0.0003  0.0007  0.0000  0.0000  0.0000  0.0000  0.0000 </r>
       </set>
       <set comment="band 19">
        <r>  0.0031  0.0395  0.0001  0.0224  0.0000  0.0000  0.0000  0.0000  0.0000 </r>
        <r>  0.0156  0.0096  0.0266  0.0002  0.0000  0.0000  0.0000  0.0000  0.0000 </r>
        <r>  0.0561  0.0000  0.0005  0.0484  0.0000  0.0000  0.0000  0.0000  0.0000 </r>
        <r>  0.0144  0.0112  0.0126  0.0015  0.0000  0.0000  0.0000  0.0000  0.0000 </r>
       </set>
       <set comment="band 20">
        <r>  0.0036  0.0046  0.0030  0.0052  0.0000  0.0000  0.0000  0.0000  0.0000 </r>
        <r>  0.0648  0.0193  0.0118  0.0392  0.0000  0.0000  0.0000  0.0000  0.0000 </r>
        <r>  0.0001  0.0002  0.0727  0.0111  0.0000  0.0000  0.0000  0.0000  0.0000 </r>
        <r>  0.0010  0.0069  0.0001  0.0823  0.0000  0.0000  0.0000  0.0000  0.0000 </r>
       </set>
      </set>
      <set comment="kpoint 53">
       <set comment="band 1">
        <r>  0.0109  0.0636  0.0000  0.1323  0.0000  0.0000  0.0000  0.0000  0.0000 </r>
        <r>  0.0002  0.0009  0.0000  0.0020  0.0000  0.0000  0.0000  0.0000  0.0000 </r>
        <r>  0.6384  0.0002  0.0000  0.0018  0.0000  0.0000  0.0000  0.0000  0.0000 </r>
        <r>  0.0096  0.0000  0.0000  0.0000  0.0000  0.0000  0.0000  0.0000  0.0000 </r>
       </set>
       <set comment="band 2">
        <r>  0.0002  0.0010  0.0000  0.0020  0.0000  0.0000  0.0000  0.0000  0.0000 </r>
        <r>  0.0108  0.0637  0.0000  0.1323  0.0000  0.0000  0.0000  0.0000  0.0000 </r>
        <r>  0.0097  0.0000  0.0000  0.0000  0.0000  0.0000  0.0000  0.0000  0.0000 </r>
        <r>  0.6385  0.0002  0.0000  0.0018  0.0000  0.0000  0.0000  0.0000  0.0000 </r>
       </set>
       <set comment="band 3">
        <r>  0.1433  0.1412  0.0000  0.0683  0.0000  0.0000  0.0000  0.0000  0.0000 </r>
        <r>  0.0080  0.0083  0.0000  0.0039  0.0000  0.0000  0.0000  0.0000  0.0000 </r>
        <r>  0.0055  0.0599  0.0000  0.3242  0.0000  0.0000  0.0000  0.0000  0.0000 </r>
        <r>  0.0004  0.0036  0.0000  0.0184  0.0000  0.0000  0.0000  0.0000  0.0000 </r>
       </set>
       <set comment="band 4">
        <r>  0.0074  0.0086  0.0000  0.0042  0.0000  0.0000  0.0000  0.0000  0.0000 </r>
        <r>  0.1426  0.1415  0.0000  0.0687  0.0000  0.0000  0.0000  0.0000  0.0000 </r>
        <r>  0.0003  0.0037  0.0000  0.0187  0.0000  0.0000  0.0000  0.0000  0.0000 </r>
        <r>  0.0054  0.0600  0.0000  0.3243  0.0000  0.0000  0.0000  0.0000  0.0000 </r>
       </set>
       <set comment="band 5">
        <r>  0.2689  0.0652  0.0000  0.0669  0.0000  0.0000  0.0000  0.0000  0.0000 </r>
        <r>  0.0132  0.0025  0.0000  0.0028  0.0000  0.0000  0.0000  0.0000  0.0000 </r>
        <r>  0.0024  0.3479  0.0000  0.0586  0.0000  0.0000  0.0000  0.0000  0.0000 </r>
        <r>  0.0001  0.0154  0.0000  0.0030  0.0000  0.0000  0.0000  0.0000  0.0000 </r>
       </set>
       <set comment="band 6">
        <r>  0.0125  0.0029  0.0000  0.0030  0.0000  0.0000  0.0000  0.0000  0.0000 </r>
        <r>  0.2683  0.0655  0.0000  0.0671  0.0000  0.0000  0.0000  0.0000  0.0000 </r>
        <r>  0.0002  0.0158  0.0000  0.0028  0.0000  0.0000  0.0000  0.0000  0.0000 </r>
        <r>  0.0025  0.3481  0.0000  0.0585  0.0000  0.0000  0.0000  0.0000  0.0000 </r>
       </set>
       <set comment="band 7">
        <r>  0.0000  0.0000  0.0154  0.0000  0.0000  0.0000  0.0000  0.0000  0.0000 </r>
        <r>  0.0001  0.0000  0.0106  0.0000  0.0000  0.0000  0.0000  0.0000  0.0000 </r>
        <r>  0.0000  0.0000  0.3806  0.0000  0.0000  0.0000  0.0000  0.0000  0.0000 </r>
        <r>  0.0000  0.0001  0.1938  0.0002  0.0000  0.0000  0.0000  0.0000  0.0000 </r>
       </set>
       <set comment="band 8">
        <r>  0.0000  0.0000  0.0078  0.0000  0.0000  0.0000  0.0000  0.0000  0.0000 </r>
        <r>  0.0000  0.0000  0.0128  0.0000  0.0000  0.0000  0.0000  0.0000  0.0000 </r>
        <r>  0.0000  0.0000  0.2026  0.0001  0.0000  0.0000  0.0000  0.0000  0.0000 </r>
        <r>  0.0000  0.0000  0.3902  0.0001  0.0000  0.0000  0.0000  0.0000  0.0000 </r>
       </set>
       <set comment="band 9">
        <r>  0.0000  0.0000  0.3619  0.0000  0.0000  0.0000  0.0000  0.0000  0.0000 </r>
        <r>  0.0000  0.0001  0.1325  0.0001  0.0000  0.0000  0.0000  0.0000  0.0000 </r>
        <r>  0.0001  0.0000  0.0274  0.0000  0.0000  0.0000  0.0000  0.0000  0.0000 </r>
        <r>  0.0000  0.0002  0.0071  0.0002  0.0000  0.0000  0.0000  0.0000  0.0000 </r>
       </set>
       <set comment="band 10">
        <r>  0.0000  0.0000  0.1413  0.0001  0.0000  0.0000  0.0000  0.0000  0.0000 </r>
        <r>  0.0000  0.0000  0.3716  0.0000  0.0000  0.0000  0.0000  0.0000  0.0000 </r>
        <r>  0.0003  0.0000  0.0037  0.0000  0.0000  0.0000  0.0000  0.0000  0.0000 </r>
        <r>  0.0000  0.0001  0.0223  0.0001  0.0000  0.0000  0.0000  0.0000  0.0000 </r>
       </set>
       <set comment="band 11">
        <r>  0.0154  0.0012  0.0004  0.0004  0.0000  0.0000  0.0000  0.0000  0.0000 </r>
        <r>  0.0008  0.0004  0.0123  0.0002  0.0000  0.0000  0.0000  0.0000  0.0000 </r>
        <r>  0.0055  0.0357  0.0014  0.0590  0.0000  0.0000  0.0000  0.0000  0.0000 </r>
        <r>  0.0020  0.0004  0.0054  0.0098  0.0000  0.0000  0.0000  0.0000  0.0000 </r>
       </set>
       <set comment="band 12">
        <r>  0.0013  0.0000  0.0171  0.0002  0.0000  0.0000  0.0000  0.0000  0.0000 </r>
        <r>  0.0062  0.0002  0.0012  0.0006  0.0000  0.0000  0.0000  0.0000  0.0000 </r>
        <r>  0.0002  0.0047  0.0135  0.0012  0.0000  0.0000  0.0000  0.0000  0.0000 </r>
        <r>  0.0091  0.0140  0.0045  0.0167  0.0000  0.0000  0.0000  0.0000  0.0000 </r>
       </set>
       <set comment="band 13">
        <r>  0.0006  0.0000  0.0033  0.0006  0.0000  0.0000  0.0000  0.0000  0.0000 </r>
        <r>  0.0600  0.0064  0.0004  0.0046  0.0000  0.0000  0.0000  0.0000  0.0000 </r>
        <r>  0.0023  0.0025  0.0034  0.0002  0.0000  0.0000  0.0000  0.0000  0.0000 </r>
        <r>  0.0064  0.0891  0.0029  0.0941  0.0000  0.0000  0.0000  0.0000  0.0000 </r>
       </set>
       <set comment="band 14">
        <r>  0.0556  0.0206  0.0090  0.0076  0.0000  0.0000  0.0000  0.0000  0.0000 </r>
        <r>  0.0158  0.0086  0.0002  0.0047  0.0000  0.0000  0.0000  0.0000  0.0000 </r>
        <r>  0.0216  0.0829  0.0005  0.0377  0.0000  0.0000  0.0000  0.0000  0.0000 </r>
        <r>  0.0032  0.0357  0.0091  0.0040  0.0000  0.0000  0.0000  0.0000  0.0000 </r>
       </set>
       <set comment="band 15">
        <r>  0.0113  0.0114  0.0130  0.0031  0.0000  0.0000  0.0000  0.0000  0.0000 </r>
        <r>  0.0063  0.0053  0.0036  0.0004  0.0000  0.0000  0.0000  0.0000  0.0000 </r>
        <r>  0.0048  0.0697  0.0019  0.0228  0.0000  0.0000  0.0000  0.0000  0.0000 </r>
        <r>  0.0061  0.0413  0.0079  0.0144  0.0000  0.0000  0.0000  0.0000  0.0000 </r>
       </set>
       <set comment="band 16">
        <r>  0.0578  0.0088  0.0040  0.0074  0.0000  0.0000  0.0000  0.0000  0.0000 </r>
        <r>  0.0082  0.0467  0.0033  0.0239  0.0000  0.0000  0.0000  0.0000  0.0000 </r>
        <r>  0.0056  0.0389  0.0008  0.0636  0.0000  0.0000  0.0000  0.0000  0.0000 </r>
        <r>  0.0193  0.0427  0.0015  0.0384  0.0000  0.0000  0.0000  0.0000  0.0000 </r>
       </set>
       <set comment="band 17">
        <r>  0.0047  0.1221  0.0009  0.1141  0.0000  0.0000  0.0000  0.0000  0.0000 </r>
        <r>  0.0120  0.0048  0.0347  0.0023  0.0000  0.0000  0.0000  0.0000  0.0000 </r>
        <r>  0.0132  0.0084  0.0033  0.0183  0.0000  0.0000  0.0000  0.0000  0.0000 </r>
        <r>  0.0019  0.0098  0.0020  0.0131  0.0000  0.0000  0.0000  0.0000  0.0000 </r>
       </set>
       <set comment="band 18">
        <r>  0.0068  0.0037  0.0073  0.0017  0.0000  0.0000  0.0000  0.0000  0.0000 </r>
        <r>  0.0102  0.1775  0.0104  0.1728  0.0000  0.0000  0.0000  0.0000  0.0000 </r>
        <r>  0.0072  0.0056  0.0055  0.0058  0.0000  0.0000  0.0000  0.0000  0.0000 </r>
        <r>  0.0547  0.0120  0.0003  0.0008  0.0000  0.0000  0.0000  0.0000  0.0000 </r>
       </set>
       <set comment="band 19">
        <r>  0.0049  0.0979  0.0010  0.0895  0.0000  0.0000  0.0000  0.0000  0.0000 </r>
        <r>  0.0087  0.0194  0.0224  0.0142  0.0000  0.0000  0.0000  0.0000  0.0000 </r>
        <r>  0.1061  0.0125  0.0002  0.0219  0.0000  0.0000  0.0000  0.0000  0.0000 </r>
        <r>  0.0192  0.0092  0.0087  0.0003  0.0000  0.0000  0.0000  0.0000  0.0000 </r>
       </set>
       <set comment="band 20">
        <r>  0.0023  0.0149  0.0027  0.0076  0.0000  0.0000  0.0000  0.0000  0.0000 </r>
        <r>  0.0875  0.0219  0.0070  0.0241  0.0000  0.0000  0.0000  0.0000  0.0000 </r>
        <r>  0.0076  0.0113  0.0390  0.0166  0.0000  0.0000  0.0000  0.0000  0.0000 </r>
        <r>  0.0299  0.0365  0.0001  0.0508  0.0000  0.0000  0.0000  0.0000  0.0000 </r>
       </set>
      </set>
      <set comment="kpoint 54">
       <set comment="band 1">
        <r>  0.0000  0.1025  0.0000  0.1025  0.0000  0.0000  0.0000  0.0000  0.0000 </r>
        <r>  0.0000  0.0000  0.0000  0.0000  0.0000  0.0000  0.0000  0.0000  0.0000 </r>
        <r>  0.6595  0.0000  0.0000  0.0000  0.0000  0.0000  0.0000  0.0000  0.0000 </r>
        <r>  0.0000  0.0000  0.0000  0.0000  0.0000  0.0000  0.0000  0.0000  0.0000 </r>
       </set>
       <set comment="band 2">
        <r>  0.0000  0.0000  0.0000  0.0000  0.0000  0.0000  0.0000  0.0000  0.0000 </r>
        <r>  0.0000  0.1025  0.0000  0.1025  0.0000  0.0000  0.0000  0.0000  0.0000 </r>
        <r>  0.0000  0.0000  0.0000  0.0000  0.0000  0.0000  0.0000  0.0000  0.0000 </r>
        <r>  0.6594  0.0000  0.0000  0.0000  0.0000  0.0000  0.0000  0.0000  0.0000 </r>
       </set>
       <set comment="band 3">
        <r>  0.0000  0.1749  0.0000  0.1749  0.0000  0.0000  0.0000  0.0000  0.0000 </r>
        <r>  0.0000  0.0000  0.0000  0.0000  0.0000  0.0000  0.0000  0.0000  0.0000 </r>
        <r>  0.0000  0.2101  0.0000  0.2101  0.0000  0.0000  0.0000  0.0000  0.0000 </r>
        <r>  0.0000  0.0000  0.0000  0.0000  0.0000  0.0000  0.0000  0.0000  0.0000 </r>
       </set>
       <set comment="band 4">
        <r>  0.0003  0.0000  0.0000  0.0000  0.0000  0.0000  0.0000  0.0000  0.0000 </r>
        <r>  0.0000  0.1748  0.0000  0.1748  0.0000  0.0000  0.0000  0.0000  0.0000 </r>
        <r>  0.0000  0.0001  0.0000  0.0001  0.0000  0.0000  0.0000  0.0000  0.0000 </r>
        <r>  0.0000  0.2098  0.0000  0.2098  0.0000  0.0000  0.0000  0.0000  0.0000 </r>
       </set>
       <set comment="band 5">
        <r>  0.4497  0.0000  0.0000  0.0000  0.0000  0.0000  0.0000  0.0000  0.0000 </r>
        <r>  0.0000  0.0002  0.0000  0.0002  0.0000  0.0000  0.0000  0.0000  0.0000 </r>
        <r>  0.0000  0.2026  0.0000  0.2026  0.0000  0.0000  0.0000  0.0000  0.0000 </r>
        <r>  0.0000  0.0002  0.0000  0.0002  0.0000  0.0000  0.0000  0.0000  0.0000 </r>
       </set>
       <set comment="band 6">
        <r>  0.0000  0.0000  0.0000  0.0000  0.0000  0.0000  0.0000  0.0000  0.0000 </r>
        <r>  0.4500  0.0000  0.0000  0.0000  0.0000  0.0000  0.0000  0.0000  0.0000 </r>
        <r>  0.0000  0.0000  0.0000  0.0000  0.0000  0.0000  0.0000  0.0000  0.0000 </r>
        <r>  0.0000  0.2026  0.0000  0.2027  0.0000  0.0000  0.0000  0.0000  0.0000 </r>
       </set>
       <set comment="band 7">
        <r>  0.0000  0.0000  0.0000  0.0000  0.0000  0.0000  0.0000  0.0000  0.0000 </r>
        <r>  0.0001  0.0000  0.0004  0.0000  0.0000  0.0000  0.0000  0.0000  0.0000 </r>
        <r>  0.0000  0.0000  0.6135  0.0000  0.0000  0.0000  0.0000  0.0000  0.0000 </r>
        <r>  0.0000  0.0002  0.0000  0.0002  0.0000  0.0000  0.0000  0.0000  0.0000 </r>
       </set>
       <set comment="band 8">
        <r>  0.0000  0.0000  0.0000  0.0000  0.0000  0.0000  0.0000  0.0000  0.0000 </r>
        <r>  0.0000  0.0000  0.0000  0.0000  0.0000  0.0000  0.0000  0.0000  0.0000 </r>
        <r>  0.0000  0.0001  0.0000  0.0001  0.0000  0.0000  0.0000  0.0000  0.0000 </r>
        <r>  0.0000  0.0000  0.6147  0.0000  0.0000  0.0000  0.0000  0.0000  0.0000 </r>
       </set>
       <set comment="band 9">
        <r>  0.0000  0.0000  0.5366  0.0000  0.0000  0.0000  0.0000  0.0000  0.0000 </r>
        <r>  0.0000  0.0001  0.0000  0.0001  0.0000  0.0000  0.0000  0.0000  0.0000 </r>
        <r>  0.0000  0.0000  0.0000  0.0000  0.0000  0.0000  0.0000  0.0000  0.0000 </r>
        <r>  0.0000  0.0003  0.0000  0.0003  0.0000  0.0000  0.0000  0.0000  0.0000 </r>
       </set>
       <set comment="band 10">
        <r>  0.0000  0.0001  0.0000  0.0001  0.0000  0.0000  0.0000  0.0000  0.0000 </r>
        <r>  0.0000  0.0000  0.5378  0.0000  0.0000  0.0000  0.0000  0.0000  0.0000 </r>
        <r>  0.0003  0.0000  0.0021  0.0000  0.0000  0.0000  0.0000  0.0000  0.0000 </r>
        <r>  0.0000  0.0000  0.0000  0.0000  0.0000  0.0000  0.0000  0.0000  0.0000 </r>
       </set>
       <set comment="band 11">
        <r>  0.0113  0.0000  0.0035  0.0000  0.0000  0.0000  0.0000  0.0000  0.0000 </r>
        <r>  0.0000  0.0001  0.0000  0.0001  0.0000  0.0000  0.0000  0.0000  0.0000 </r>
        <r>  0.0000  0.0415  0.0000  0.0415  0.0000  0.0000  0.0000  0.0000  0.0000 </r>
        <r>  0.0000  0.0009  0.0000  0.0009  0.0000  0.0000  0.0000  0.0000  0.0000 </r>
       </set>
       <set comment="band 12">
        <r>  0.0000  0.0000  0.0000  0.0000  0.0000  0.0000  0.0000  0.0000  0.0000 </r>
        <r>  0.0000  0.0016  0.0000  0.0016  0.0000  0.0000  0.0000  0.0000  0.0000 </r>
        <r>  0.0000  0.0002  0.0000  0.0002  0.0000  0.0000  0.0000  0.0000  0.0000 </r>
        <r>  0.0038  0.0000  0.0040  0.0000  0.0000  0.0000  0.0000  0.0000  0.0000 </r>
       </set>
       <set comment="band 13">
        <r>  0.0000  0.0009  0.0000  0.0009  0.0000  0.0000  0.0000  0.0000  0.0000 </r>
        <r>  0.0680  0.0000  0.0007  0.0000  0.0000  0.0000  0.0000  0.0000  0.0000 </r>
        <r>  0.0015  0.0000  0.0152  0.0000  0.0000  0.0000  0.0000  0.0000  0.0000 </r>
        <r>  0.0000  0.1317  0.0000  0.1317  0.0000  0.0000  0.0000  0.0000  0.0000 </r>
       </set>
       <set comment="band 14">
        <r>  0.0579  0.0000  0.0223  0.0000  0.0000  0.0000  0.0000  0.0000  0.0000 </r>
        <r>  0.0000  0.0017  0.0000  0.0017  0.0000  0.0000  0.0000  0.0000  0.0000 </r>
        <r>  0.0000  0.0754  0.0000  0.0754  0.0000  0.0000  0.0000  0.0000  0.0000 </r>
        <r>  0.0000  0.0226  0.0000  0.0226  0.0000  0.0000  0.0000  0.0000  0.0000 </r>
       </set>
       <set comment="band 15">
        <r>  0.0000  0.0046  0.0000  0.0046  0.0000  0.0000  0.0000  0.0000  0.0000 </r>
        <r>  0.0000  0.0015  0.0000  0.0015  0.0000  0.0000  0.0000  0.0000  0.0000 </r>
        <r>  0.0000  0.0719  0.0000  0.0719  0.0000  0.0000  0.0000  0.0000  0.0000 </r>
        <r>  0.0015  0.0000  0.0267  0.0000  0.0000  0.0000  0.0000  0.0000  0.0000 </r>
       </set>
       <set comment="band 16">
        <r>  0.0673  0.0000  0.0138  0.0000  0.0000  0.0000  0.0000  0.0000  0.0000 </r>
        <r>  0.0000  0.0028  0.0000  0.0028  0.0000  0.0000  0.0000  0.0000  0.0000 </r>
        <r>  0.0000  0.0583  0.0000  0.0583  0.0000  0.0000  0.0000  0.0000  0.0000 </r>
        <r>  0.0000  0.0730  0.0000  0.0730  0.0000  0.0000  0.0000  0.0000  0.0000 </r>
       </set>
       <set comment="band 17">
        <r>  0.0000  0.0783  0.0000  0.0783  0.0000  0.0000  0.0000  0.0000  0.0000 </r>
        <r>  0.0199  0.0000  0.0605  0.0000  0.0000  0.0000  0.0000  0.0000  0.0000 </r>
        <r>  0.0001  0.0000  0.0045  0.0000  0.0000  0.0000  0.0000  0.0000  0.0000 </r>
        <r>  0.0000  0.0127  0.0000  0.0127  0.0000  0.0000  0.0000  0.0000  0.0000 </r>
       </set>
       <set comment="band 18">
        <r>  0.0000  0.0000  0.0000  0.0000  0.0000  0.0000  0.0000  0.0000  0.0000 </r>
        <r>  0.0000  0.2943  0.0000  0.2943  0.0000  0.0000  0.0000  0.0000  0.0000 </r>
        <r>  0.0000  0.0026  0.0000  0.0026  0.0000  0.0000  0.0000  0.0000  0.0000 </r>
        <r>  0.1219  0.0000  0.0000  0.0000  0.0000  0.0000  0.0000  0.0000  0.0000 </r>
       </set>
       <set comment="band 19">
        <r>  0.0000  0.2233  0.0000  0.2233  0.0000  0.0000  0.0000  0.0000  0.0000 </r>
        <r>  0.0029  0.0000  0.0150  0.0000  0.0000  0.0000  0.0000  0.0000  0.0000 </r>
        <r>  0.1847  0.0000  0.0013  0.0000  0.0000  0.0000  0.0000  0.0000  0.0000 </r>
        <r>  0.0000  0.0014  0.0000  0.0014  0.0000  0.0000  0.0000  0.0000  0.0000 </r>
       </set>
       <set comment="band 20">
        <r>  0.0000  0.0001  0.0000  0.0001  0.0000  0.0000  0.0000  0.0000  0.0000 </r>
        <r>  0.0000  0.0054  0.0000  0.0054  0.0000  0.0000  0.0000  0.0000  0.0000 </r>
        <r>  0.0000  0.0503  0.0000  0.0503  0.0000  0.0000  0.0000  0.0000  0.0000 </r>
        <r>  0.0545  0.0000  0.0065  0.0000  0.0000  0.0000  0.0000  0.0000  0.0000 </r>
       </set>
      </set>
     </set>
    </set>
   </array>
  </projected>
 </calculation>
 <structure name="finalpos" >
  <crystal>
   <varray name="basis" >
    <v>       1.25623732      -2.17586686       0.00000000 </v>
    <v>       1.25623732       2.17586686       0.00000000 </v>
    <v>       0.00000000       0.00000000       7.52645917 </v>
   </varray>
   <i name="volume">     41.14572454 </i>
   <varray name="rec_basis" >
    <v>       0.39801397      -0.22979347       0.00000000 </v>
    <v>       0.39801397       0.22979347       0.00000000 </v>
    <v>       0.00000000       0.00000000       0.13286460 </v>
   </varray>
  </crystal>
  <varray name="positions" >
   <v>       0.00000000       0.00000000       0.00000000 </v>
   <v>       0.33333333       0.66666667       0.50000000 </v>
   <v>       0.33333333       0.66666667       0.00000000 </v>
   <v>       0.66666667       0.33333333       0.50000000 </v>
  </varray>
 </structure>
</modeling>
