PROCAR lm decomposed
# of k-points:  140         # of bands:   20         # of ions:    4

 k-point     1 :    0.00000000 0.00000000 0.00000000     weight = 0.00714286

band     1 # energy  -16.36685193 # occ.  2.00000000
 
ion      s     py     pz     px    dxy    dyz    dz2    dxz  x2-y2    tot
    1  0.170  0.000  0.000  0.000  0.000  0.000  0.000  0.000  0.000  0.170
    2  0.096  0.000  0.000  0.000  0.000  0.000  0.000  0.000  0.000  0.096
    3  0.322  0.000  0.000  0.000  0.000  0.000  0.000  0.000  0.000  0.322
    4  0.181  0.000  0.000  0.000  0.000  0.000  0.000  0.000  0.000  0.181
tot    0.769  0.000  0.000  0.000  0.000  0.000  0.000  0.000  0.000  0.769
 
band     2 # energy  -16.25691853 # occ.  2.00000000
 
ion      s     py     pz     px    dxy    dyz    dz2    dxz  x2-y2    tot
    1  0.097  0.000  0.000  0.000  0.000  0.000  0.000  0.000  0.000  0.097
    2  0.172  0.000  0.000  0.000  0.000  0.000  0.000  0.000  0.000  0.172
    3  0.186  0.000  0.000  0.000  0.000  0.000  0.000  0.000  0.000  0.186
    4  0.326  0.000  0.000  0.000  0.000  0.000  0.000  0.000  0.000  0.326
tot    0.781  0.000  0.000  0.000  0.000  0.000  0.000  0.000  0.000  0.781
 
band     3 # energy   -4.43123977 # occ.  2.00000000
 
ion      s     py     pz     px    dxy    dyz    dz2    dxz  x2-y2    tot
    1  0.000  0.000  0.093  0.000  0.000  0.000  0.000  0.000  0.000  0.093
    2  0.000  0.000  0.089  0.000  0.000  0.000  0.000  0.000  0.000  0.089
    3  0.000  0.000  0.149  0.000  0.000  0.000  0.000  0.000  0.000  0.149
    4  0.000  0.000  0.141  0.000  0.000  0.000  0.000  0.000  0.000  0.141
tot    0.000  0.000  0.472  0.000  0.000  0.000  0.000  0.000  0.000  0.472
 
band     4 # energy   -3.32492102 # occ.  2.00000000
 
ion      s     py     pz     px    dxy    dyz    dz2    dxz  x2-y2    tot
    1  0.000  0.000  0.102  0.000  0.000  0.000  0.000  0.000  0.000  0.102
    2  0.000  0.000  0.107  0.000  0.000  0.000  0.000  0.000  0.000  0.107
    3  0.000  0.000  0.176  0.000  0.000  0.000  0.000  0.000  0.000  0.176
    4  0.000  0.000  0.184  0.000  0.000  0.000  0.000  0.000  0.000  0.184
tot    0.000  0.000  0.569  0.000  0.000  0.000  0.000  0.000  0.000  0.569
 
band     5 # energy   -0.06401871 # occ.  2.00000000
 
ion      s     py     pz     px    dxy    dyz    dz2    dxz  x2-y2    tot
    1  0.000  0.271  0.000  0.000  0.000  0.000  0.000  0.000  0.000  0.271
    2  0.000  0.001  0.000  0.000  0.000  0.000  0.000  0.000  0.000  0.001
    3  0.000  0.625  0.000  0.000  0.000  0.000  0.000  0.000  0.000  0.625
    4  0.000  0.003  0.000  0.000  0.000  0.000  0.000  0.000  0.000  0.003
tot    0.000  0.901  0.000  0.000  0.000  0.000  0.000  0.000  0.000  0.901
 
band     6 # energy   -0.06395454 # occ.  2.00000000
 
ion      s     py     pz     px    dxy    dyz    dz2    dxz  x2-y2    tot
    1  0.000  0.000  0.000  0.271  0.000  0.000  0.000  0.000  0.000  0.271
    2  0.000  0.000  0.000  0.001  0.000  0.000  0.000  0.000  0.000  0.001
    3  0.000  0.000  0.000  0.625  0.000  0.000  0.000  0.000  0.000  0.625
    4  0.000  0.000  0.000  0.003  0.000  0.000  0.000  0.000  0.000  0.003
tot    0.000  0.000  0.000  0.901  0.000  0.000  0.000  0.000  0.000  0.901
 
band     7 # energy   -0.03171978 # occ.  2.00000000
 
ion      s     py     pz     px    dxy    dyz    dz2    dxz  x2-y2    tot
    1  0.000  0.001  0.000  0.000  0.000  0.000  0.000  0.000  0.000  0.001
    2  0.000  0.271  0.000  0.000  0.000  0.000  0.000  0.000  0.000  0.271
    3  0.000  0.003  0.000  0.000  0.000  0.000  0.000  0.000  0.000  0.003
    4  0.000  0.625  0.000  0.000  0.000  0.000  0.000  0.000  0.000  0.625
tot    0.000  0.901  0.000  0.000  0.000  0.000  0.000  0.000  0.000  0.901
 
band     8 # energy   -0.03169092 # occ.  2.00000000
 
ion      s     py     pz     px    dxy    dyz    dz2    dxz  x2-y2    tot
    1  0.000  0.000  0.000  0.001  0.000  0.000  0.000  0.000  0.000  0.001
    2  0.000  0.000  0.000  0.271  0.000  0.000  0.000  0.000  0.000  0.271
    3  0.000  0.000  0.000  0.003  0.000  0.000  0.000  0.000  0.000  0.003
    4  0.000  0.000  0.000  0.625  0.000  0.000  0.000  0.000  0.000  0.625
tot    0.000  0.000  0.000  0.901  0.000  0.000  0.000  0.000  0.000  0.901
 
band     9 # energy    5.95642108 # occ.  0.00000000
 
ion      s     py     pz     px    dxy    dyz    dz2    dxz  x2-y2    tot
    1  0.000  0.000  0.000  0.000  0.000  0.000  0.000  0.000  0.000  0.000
    2  0.000  0.000  0.000  0.000  0.000  0.000  0.000  0.000  0.000  0.000
    3  0.056  0.000  0.000  0.000  0.000  0.000  0.000  0.000  0.000  0.056
    4  0.056  0.000  0.000  0.000  0.000  0.000  0.000  0.000  0.000  0.056
tot    0.112  0.000  0.000  0.000  0.000  0.000  0.000  0.000  0.000  0.112
 
band    10 # energy   10.11463184 # occ.  0.00000000
 
ion      s     py     pz     px    dxy    dyz    dz2    dxz  x2-y2    tot
    1  0.000  0.000  0.000  0.000  0.000  0.000  0.000  0.000  0.000  0.000
    2  0.000  0.000  0.000  0.000  0.000  0.000  0.000  0.000  0.000  0.000
    3  0.000  0.000  0.185  0.000  0.000  0.000  0.000  0.000  0.000  0.185
    4  0.000  0.000  0.183  0.000  0.000  0.000  0.000  0.000  0.000  0.183
tot    0.000  0.000  0.368  0.000  0.000  0.000  0.000  0.000  0.000  0.368
 
band    11 # energy   12.46650607 # occ.  0.00000000
 
ion      s     py     pz     px    dxy    dyz    dz2    dxz  x2-y2    tot
    1  0.078  0.000  0.000  0.000  0.000  0.000  0.000  0.000  0.000  0.078
    2  0.075  0.000  0.000  0.000  0.000  0.000  0.000  0.000  0.000  0.075
    3  0.172  0.000  0.000  0.000  0.000  0.000  0.000  0.000  0.000  0.172
    4  0.168  0.000  0.000  0.000  0.000  0.000  0.000  0.000  0.000  0.168
tot    0.492  0.000  0.000  0.000  0.000  0.000  0.000  0.000  0.000  0.492
 
band    12 # energy   12.79357627 # occ.  0.00000000
 
ion      s     py     pz     px    dxy    dyz    dz2    dxz  x2-y2    tot
    1  0.000  0.415  0.000  0.000  0.000  0.000  0.000  0.000  0.000  0.415
    2  0.000  0.066  0.000  0.000  0.000  0.000  0.000  0.000  0.000  0.066
    3  0.000  0.093  0.000  0.000  0.000  0.000  0.000  0.000  0.000  0.093
    4  0.000  0.014  0.000  0.000  0.000  0.000  0.000  0.000  0.000  0.014
tot    0.000  0.588  0.000  0.000  0.000  0.000  0.000  0.000  0.000  0.588
 
band    13 # energy   12.79357930 # occ.  0.00000000
 
ion      s     py     pz     px    dxy    dyz    dz2    dxz  x2-y2    tot
    1  0.000  0.000  0.000  0.415  0.000  0.000  0.000  0.000  0.000  0.415
    2  0.000  0.000  0.000  0.066  0.000  0.000  0.000  0.000  0.000  0.066
    3  0.000  0.000  0.000  0.093  0.000  0.000  0.000  0.000  0.000  0.093
    4  0.000  0.000  0.000  0.014  0.000  0.000  0.000  0.000  0.000  0.014
tot    0.000  0.000  0.000  0.588  0.000  0.000  0.000  0.000  0.000  0.588
 
band    14 # energy   12.83283581 # occ.  0.00000000
 
ion      s     py     pz     px    dxy    dyz    dz2    dxz  x2-y2    tot
    1  0.000  0.067  0.000  0.000  0.000  0.000  0.000  0.000  0.000  0.067
    2  0.000  0.415  0.000  0.000  0.000  0.000  0.000  0.000  0.000  0.415
    3  0.000  0.014  0.000  0.000  0.000  0.000  0.000  0.000  0.000  0.014
    4  0.000  0.093  0.000  0.000  0.000  0.000  0.000  0.000  0.000  0.093
tot    0.000  0.590  0.000  0.000  0.000  0.000  0.000  0.000  0.000  0.590
 
band    15 # energy   12.83285559 # occ.  0.00000000
 
ion      s     py     pz     px    dxy    dyz    dz2    dxz  x2-y2    tot
    1  0.000  0.000  0.000  0.067  0.000  0.000  0.000  0.000  0.000  0.067
    2  0.000  0.000  0.000  0.415  0.000  0.000  0.000  0.000  0.000  0.415
    3  0.000  0.000  0.000  0.014  0.000  0.000  0.000  0.000  0.000  0.014
    4  0.000  0.000  0.000  0.093  0.000  0.000  0.000  0.000  0.000  0.093
tot    0.000  0.000  0.000  0.590  0.000  0.000  0.000  0.000  0.000  0.590
 
band    16 # energy   14.00202050 # occ.  0.00000000
 
ion      s     py     pz     px    dxy    dyz    dz2    dxz  x2-y2    tot
    1  0.000  0.000  0.161  0.000  0.000  0.000  0.000  0.000  0.000  0.161
    2  0.000  0.000  0.158  0.000  0.000  0.000  0.000  0.000  0.000  0.158
    3  0.000  0.000  0.215  0.000  0.000  0.000  0.000  0.000  0.000  0.215
    4  0.000  0.000  0.216  0.000  0.000  0.000  0.000  0.000  0.000  0.216
tot    0.000  0.000  0.749  0.000  0.000  0.000  0.000  0.000  0.000  0.749
 
band    17 # energy   15.29731966 # occ.  0.00000000
 
ion      s     py     pz     px    dxy    dyz    dz2    dxz  x2-y2    tot
    1  0.167  0.000  0.000  0.000  0.000  0.000  0.000  0.000  0.000  0.167
    2  0.168  0.000  0.000  0.000  0.000  0.000  0.000  0.000  0.000  0.168
    3  0.127  0.000  0.000  0.000  0.000  0.000  0.000  0.000  0.000  0.127
    4  0.132  0.000  0.000  0.000  0.000  0.000  0.000  0.000  0.000  0.132
tot    0.594  0.000  0.000  0.000  0.000  0.000  0.000  0.000  0.000  0.594
 
band    18 # energy   16.17506497 # occ.  0.00000000
 
ion      s     py     pz     px    dxy    dyz    dz2    dxz  x2-y2    tot
    1  0.000  0.000  0.277  0.000  0.000  0.000  0.000  0.000  0.000  0.277
    2  0.000  0.000  0.278  0.000  0.000  0.000  0.000  0.000  0.000  0.278
    3  0.000  0.000  0.066  0.000  0.000  0.000  0.000  0.000  0.000  0.066
    4  0.000  0.000  0.068  0.000  0.000  0.000  0.000  0.000  0.000  0.068
tot    0.000  0.000  0.689  0.000  0.000  0.000  0.000  0.000  0.000  0.689
 
band    19 # energy   19.58432798 # occ.  0.00000000
 
ion      s     py     pz     px    dxy    dyz    dz2    dxz  x2-y2    tot
    1  0.089  0.000  0.000  0.000  0.000  0.000  0.000  0.000  0.000  0.089
    2  0.091  0.000  0.000  0.000  0.000  0.000  0.000  0.000  0.000  0.091
    3  0.012  0.000  0.000  0.000  0.000  0.000  0.000  0.000  0.000  0.012
    4  0.011  0.000  0.000  0.000  0.000  0.000  0.000  0.000  0.000  0.011
tot    0.203  0.000  0.000  0.000  0.000  0.000  0.000  0.000  0.000  0.203
 
band    20 # energy   25.63248195 # occ.  0.00000000
 
ion      s     py     pz     px    dxy    dyz    dz2    dxz  x2-y2    tot
    1  0.000  0.000  0.147  0.000  0.000  0.000  0.000  0.000  0.000  0.147
    2  0.000  0.000  0.158  0.000  0.000  0.000  0.000  0.000  0.000  0.158
    3  0.000  0.000  0.028  0.000  0.000  0.000  0.000  0.000  0.000  0.028
    4  0.000  0.000  0.025  0.000  0.000  0.000  0.000  0.000  0.000  0.025
tot    0.000  0.000  0.358  0.000  0.000  0.000  0.000  0.000  0.000  0.358
 

 k-point     2 :    0.02631579 0.00000000 0.00000000     weight = 0.00714286

band     1 # energy  -16.35348210 # occ.  2.00000000
 
ion      s     py     pz     px    dxy    dyz    dz2    dxz  x2-y2    tot
    1  0.170  0.000  0.000  0.000  0.000  0.000  0.000  0.000  0.000  0.170
    2  0.096  0.000  0.000  0.000  0.000  0.000  0.000  0.000  0.000  0.096
    3  0.322  0.000  0.000  0.000  0.000  0.000  0.000  0.000  0.000  0.322
    4  0.181  0.000  0.000  0.000  0.000  0.000  0.000  0.000  0.000  0.181
tot    0.769  0.000  0.000  0.001  0.000  0.000  0.000  0.000  0.000  0.770
 
band     2 # energy  -16.24378470 # occ.  2.00000000
 
ion      s     py     pz     px    dxy    dyz    dz2    dxz  x2-y2    tot
    1  0.097  0.000  0.000  0.000  0.000  0.000  0.000  0.000  0.000  0.097
    2  0.171  0.000  0.000  0.000  0.000  0.000  0.000  0.000  0.000  0.172
    3  0.185  0.000  0.000  0.000  0.000  0.000  0.000  0.000  0.000  0.185
    4  0.326  0.000  0.000  0.000  0.000  0.000  0.000  0.000  0.000  0.326
tot    0.780  0.000  0.000  0.001  0.000  0.000  0.000  0.000  0.000  0.781
 
band     3 # energy   -4.41292154 # occ.  2.00000000
 
ion      s     py     pz     px    dxy    dyz    dz2    dxz  x2-y2    tot
    1  0.000  0.000  0.093  0.000  0.000  0.000  0.000  0.000  0.000  0.093
    2  0.000  0.000  0.089  0.000  0.000  0.000  0.000  0.000  0.000  0.089
    3  0.000  0.000  0.149  0.000  0.000  0.000  0.000  0.000  0.000  0.149
    4  0.000  0.000  0.141  0.000  0.000  0.000  0.000  0.000  0.000  0.141
tot    0.000  0.000  0.472  0.000  0.000  0.000  0.000  0.000  0.000  0.472
 
band     4 # energy   -3.30780449 # occ.  2.00000000
 
ion      s     py     pz     px    dxy    dyz    dz2    dxz  x2-y2    tot
    1  0.000  0.000  0.102  0.000  0.000  0.000  0.000  0.000  0.000  0.102
    2  0.000  0.000  0.107  0.000  0.000  0.000  0.000  0.000  0.000  0.107
    3  0.000  0.000  0.176  0.000  0.000  0.000  0.000  0.000  0.000  0.176
    4  0.000  0.000  0.184  0.000  0.000  0.000  0.000  0.000  0.000  0.184
tot    0.000  0.000  0.569  0.000  0.000  0.000  0.000  0.000  0.000  0.569
 
band     5 # energy   -0.12222660 # occ.  2.00000000
 
ion      s     py     pz     px    dxy    dyz    dz2    dxz  x2-y2    tot
    1  0.002  0.068  0.000  0.202  0.000  0.000  0.000  0.000  0.000  0.272
    2  0.000  0.000  0.000  0.001  0.000  0.000  0.000  0.000  0.000  0.001
    3  0.002  0.156  0.000  0.466  0.000  0.000  0.000  0.000  0.000  0.623
    4  0.000  0.001  0.000  0.002  0.000  0.000  0.000  0.000  0.000  0.003
tot    0.004  0.225  0.000  0.671  0.000  0.000  0.000  0.000  0.000  0.899
 
band     6 # energy   -0.09094491 # occ.  2.00000000
 
ion      s     py     pz     px    dxy    dyz    dz2    dxz  x2-y2    tot
    1  0.000  0.204  0.000  0.068  0.000  0.000  0.000  0.000  0.000  0.272
    2  0.000  0.001  0.000  0.000  0.000  0.000  0.000  0.000  0.000  0.002
    3  0.000  0.467  0.000  0.156  0.000  0.000  0.000  0.000  0.000  0.623
    4  0.000  0.003  0.000  0.001  0.000  0.000  0.000  0.000  0.000  0.004
tot    0.000  0.675  0.000  0.226  0.000  0.000  0.000  0.000  0.000  0.901
 
band     7 # energy   -0.09005124 # occ.  2.00000000
 
ion      s     py     pz     px    dxy    dyz    dz2    dxz  x2-y2    tot
    1  0.000  0.000  0.000  0.001  0.000  0.000  0.000  0.000  0.000  0.001
    2  0.002  0.068  0.000  0.202  0.000  0.000  0.000  0.000  0.000  0.272
    3  0.000  0.001  0.000  0.002  0.000  0.000  0.000  0.000  0.000  0.003
    4  0.002  0.156  0.000  0.466  0.000  0.000  0.000  0.000  0.000  0.623
tot    0.004  0.224  0.000  0.671  0.000  0.000  0.000  0.000  0.000  0.900
 
band     8 # energy   -0.05857487 # occ.  2.00000000
 
ion      s     py     pz     px    dxy    dyz    dz2    dxz  x2-y2    tot
    1  0.000  0.001  0.000  0.000  0.000  0.000  0.000  0.000  0.000  0.002
    2  0.000  0.204  0.000  0.068  0.000  0.000  0.000  0.000  0.000  0.272
    3  0.000  0.003  0.000  0.001  0.000  0.000  0.000  0.000  0.000  0.004
    4  0.000  0.467  0.000  0.156  0.000  0.000  0.000  0.000  0.000  0.623
tot    0.000  0.675  0.000  0.225  0.000  0.000  0.000  0.000  0.000  0.901
 
band     9 # energy    5.98156245 # occ.  0.00000000
 
ion      s     py     pz     px    dxy    dyz    dz2    dxz  x2-y2    tot
    1  0.000  0.000  0.000  0.000  0.000  0.000  0.000  0.000  0.000  0.000
    2  0.000  0.000  0.000  0.000  0.000  0.000  0.000  0.000  0.000  0.000
    3  0.055  0.000  0.000  0.001  0.000  0.000  0.000  0.000  0.000  0.056
    4  0.055  0.000  0.000  0.001  0.000  0.000  0.000  0.000  0.000  0.056
tot    0.111  0.000  0.000  0.001  0.000  0.000  0.000  0.000  0.000  0.112
 
band    10 # energy   10.11853076 # occ.  0.00000000
 
ion      s     py     pz     px    dxy    dyz    dz2    dxz  x2-y2    tot
    1  0.000  0.000  0.000  0.000  0.000  0.000  0.000  0.000  0.000  0.000
    2  0.000  0.000  0.000  0.000  0.000  0.000  0.000  0.000  0.000  0.000
    3  0.000  0.000  0.186  0.000  0.000  0.000  0.000  0.000  0.000  0.186
    4  0.000  0.000  0.183  0.000  0.000  0.000  0.000  0.000  0.000  0.183
tot    0.000  0.000  0.370  0.000  0.000  0.000  0.000  0.000  0.000  0.370
 
band    11 # energy   12.47408894 # occ.  0.00000000
 
ion      s     py     pz     px    dxy    dyz    dz2    dxz  x2-y2    tot
    1  0.069  0.006  0.000  0.019  0.000  0.000  0.000  0.000  0.000  0.094
    2  0.067  0.004  0.000  0.013  0.000  0.000  0.000  0.000  0.000  0.085
    3  0.162  0.000  0.000  0.001  0.000  0.000  0.000  0.000  0.000  0.163
    4  0.158  0.000  0.000  0.000  0.000  0.000  0.000  0.000  0.000  0.158
tot    0.456  0.011  0.000  0.033  0.000  0.000  0.000  0.000  0.000  0.500
 
band    12 # energy   12.80810753 # occ.  0.00000000
 
ion      s     py     pz     px    dxy    dyz    dz2    dxz  x2-y2    tot
    1  0.004  0.113  0.000  0.339  0.000  0.000  0.000  0.000  0.000  0.456
    2  0.004  0.001  0.000  0.003  0.000  0.000  0.000  0.000  0.000  0.009
    3  0.002  0.026  0.000  0.079  0.000  0.000  0.000  0.000  0.000  0.108
    4  0.009  0.000  0.000  0.000  0.000  0.000  0.000  0.000  0.000  0.010
tot    0.019  0.141  0.000  0.422  0.000  0.000  0.000  0.000  0.000  0.582
 
band    13 # energy   12.83203232 # occ.  0.00000000
 
ion      s     py     pz     px    dxy    dyz    dz2    dxz  x2-y2    tot
    1  0.004  0.000  0.000  0.001  0.000  0.000  0.000  0.000  0.000  0.006
    2  0.004  0.114  0.000  0.342  0.000  0.000  0.000  0.000  0.000  0.460
    3  0.008  0.000  0.000  0.001  0.000  0.000  0.000  0.000  0.000  0.009
    4  0.001  0.027  0.000  0.080  0.000  0.000  0.000  0.000  0.000  0.108
tot    0.017  0.141  0.000  0.423  0.000  0.000  0.000  0.000  0.000  0.582
 
band    14 # energy   12.85353141 # occ.  0.00000000
 
ion      s     py     pz     px    dxy    dyz    dz2    dxz  x2-y2    tot
    1  0.000  0.310  0.000  0.103  0.000  0.000  0.000  0.000  0.000  0.414
    2  0.000  0.049  0.000  0.016  0.000  0.000  0.000  0.000  0.000  0.066
    3  0.000  0.071  0.000  0.024  0.000  0.000  0.000  0.000  0.000  0.095
    4  0.000  0.011  0.000  0.004  0.000  0.000  0.000  0.000  0.000  0.015
tot    0.000  0.441  0.000  0.147  0.000  0.000  0.000  0.000  0.000  0.588
 
band    15 # energy   12.89282253 # occ.  0.00000000
 
ion      s     py     pz     px    dxy    dyz    dz2    dxz  x2-y2    tot
    1  0.000  0.050  0.000  0.017  0.000  0.000  0.000  0.000  0.000  0.066
    2  0.000  0.311  0.000  0.104  0.000  0.000  0.000  0.000  0.000  0.414
    3  0.000  0.011  0.000  0.004  0.000  0.000  0.000  0.000  0.000  0.015
    4  0.000  0.071  0.000  0.024  0.000  0.000  0.000  0.000  0.000  0.095
tot    0.000  0.443  0.000  0.148  0.000  0.000  0.000  0.000  0.000  0.590
 
band    16 # energy   13.95798341 # occ.  0.00000000
 
ion      s     py     pz     px    dxy    dyz    dz2    dxz  x2-y2    tot
    1  0.000  0.000  0.161  0.000  0.000  0.000  0.000  0.000  0.000  0.161
    2  0.000  0.000  0.158  0.000  0.000  0.000  0.000  0.000  0.000  0.158
    3  0.000  0.000  0.213  0.000  0.000  0.000  0.000  0.000  0.000  0.213
    4  0.000  0.000  0.215  0.000  0.000  0.000  0.000  0.000  0.000  0.215
tot    0.000  0.000  0.747  0.000  0.000  0.000  0.000  0.000  0.000  0.747
 
band    17 # energy   15.34299542 # occ.  0.00000000
 
ion      s     py     pz     px    dxy    dyz    dz2    dxz  x2-y2    tot
    1  0.167  0.000  0.000  0.000  0.000  0.000  0.000  0.000  0.000  0.167
    2  0.168  0.000  0.000  0.000  0.000  0.000  0.000  0.000  0.000  0.168
    3  0.125  0.001  0.000  0.002  0.000  0.000  0.000  0.000  0.000  0.128
    4  0.130  0.001  0.000  0.002  0.000  0.000  0.000  0.000  0.000  0.133
tot    0.591  0.002  0.000  0.005  0.000  0.000  0.000  0.000  0.000  0.597
 
band    18 # energy   16.13638018 # occ.  0.00000000
 
ion      s     py     pz     px    dxy    dyz    dz2    dxz  x2-y2    tot
    1  0.000  0.000  0.277  0.000  0.000  0.000  0.000  0.000  0.000  0.277
    2  0.000  0.000  0.277  0.000  0.000  0.000  0.000  0.000  0.000  0.277
    3  0.000  0.000  0.065  0.000  0.000  0.000  0.000  0.000  0.000  0.065
    4  0.000  0.000  0.066  0.000  0.000  0.000  0.000  0.000  0.000  0.066
tot    0.000  0.000  0.685  0.000  0.000  0.000  0.000  0.000  0.000  0.685
 
band    19 # energy   19.61611647 # occ.  0.00000000
 
ion      s     py     pz     px    dxy    dyz    dz2    dxz  x2-y2    tot
    1  0.090  0.000  0.000  0.000  0.000  0.000  0.000  0.000  0.000  0.090
    2  0.092  0.000  0.000  0.000  0.000  0.000  0.000  0.000  0.000  0.092
    3  0.012  0.000  0.000  0.000  0.000  0.000  0.000  0.000  0.000  0.012
    4  0.011  0.000  0.000  0.000  0.000  0.000  0.000  0.000  0.000  0.012
tot    0.204  0.000  0.000  0.001  0.000  0.000  0.000  0.000  0.000  0.205
 
band    20 # energy   25.58194747 # occ.  0.00000000
 
ion      s     py     pz     px    dxy    dyz    dz2    dxz  x2-y2    tot
    1  0.000  0.000  0.143  0.000  0.000  0.000  0.000  0.000  0.000  0.143
    2  0.000  0.000  0.155  0.000  0.000  0.000  0.000  0.000  0.000  0.155
    3  0.000  0.000  0.029  0.000  0.000  0.000  0.000  0.000  0.000  0.029
    4  0.000  0.000  0.025  0.000  0.000  0.000  0.000  0.000  0.000  0.025
tot    0.000  0.000  0.352  0.000  0.000  0.000  0.000  0.000  0.000  0.352
 

 k-point     3 :    0.05263158 0.00000000 0.00000000     weight = 0.00714286

band     1 # energy  -16.31344275 # occ.  2.00000000
 
ion      s     py     pz     px    dxy    dyz    dz2    dxz  x2-y2    tot
    1  0.169  0.000  0.000  0.001  0.000  0.000  0.000  0.000  0.000  0.170
    2  0.095  0.000  0.000  0.001  0.000  0.000  0.000  0.000  0.000  0.096
    3  0.323  0.000  0.000  0.000  0.000  0.000  0.000  0.000  0.000  0.323
    4  0.181  0.000  0.000  0.000  0.000  0.000  0.000  0.000  0.000  0.181
tot    0.767  0.001  0.000  0.003  0.000  0.000  0.000  0.000  0.000  0.770
 
band     2 # energy  -16.20430152 # occ.  2.00000000
 
ion      s     py     pz     px    dxy    dyz    dz2    dxz  x2-y2    tot
    1  0.096  0.000  0.000  0.001  0.000  0.000  0.000  0.000  0.000  0.097
    2  0.170  0.000  0.000  0.001  0.000  0.000  0.000  0.000  0.000  0.172
    3  0.185  0.000  0.000  0.000  0.000  0.000  0.000  0.000  0.000  0.185
    4  0.327  0.000  0.000  0.000  0.000  0.000  0.000  0.000  0.000  0.327
tot    0.778  0.001  0.000  0.003  0.000  0.000  0.000  0.000  0.000  0.781
 
band     3 # energy   -4.35801867 # occ.  2.00000000
 
ion      s     py     pz     px    dxy    dyz    dz2    dxz  x2-y2    tot
    1  0.000  0.000  0.093  0.000  0.000  0.000  0.000  0.000  0.000  0.093
    2  0.000  0.000  0.088  0.000  0.000  0.000  0.000  0.000  0.000  0.088
    3  0.000  0.000  0.150  0.000  0.000  0.000  0.000  0.000  0.000  0.150
    4  0.000  0.000  0.141  0.000  0.000  0.000  0.000  0.000  0.000  0.141
tot    0.000  0.000  0.472  0.000  0.000  0.000  0.000  0.000  0.000  0.472
 
band     4 # energy   -3.25654204 # occ.  2.00000000
 
ion      s     py     pz     px    dxy    dyz    dz2    dxz  x2-y2    tot
    1  0.000  0.000  0.102  0.000  0.000  0.000  0.000  0.000  0.000  0.102
    2  0.000  0.000  0.106  0.000  0.000  0.000  0.000  0.000  0.000  0.106
    3  0.000  0.000  0.176  0.000  0.000  0.000  0.000  0.000  0.000  0.176
    4  0.000  0.000  0.185  0.000  0.000  0.000  0.000  0.000  0.000  0.185
tot    0.000  0.000  0.569  0.000  0.000  0.000  0.000  0.000  0.000  0.569
 
band     5 # energy   -0.29333949 # occ.  2.00000000
 
ion      s     py     pz     px    dxy    dyz    dz2    dxz  x2-y2    tot
    1  0.009  0.067  0.000  0.200  0.000  0.000  0.000  0.000  0.000  0.275
    2  0.000  0.000  0.000  0.001  0.000  0.000  0.000  0.000  0.000  0.001
    3  0.007  0.153  0.000  0.458  0.000  0.000  0.000  0.000  0.000  0.617
    4  0.000  0.001  0.000  0.002  0.000  0.000  0.000  0.000  0.000  0.003
tot    0.016  0.220  0.000  0.660  0.000  0.000  0.000  0.000  0.000  0.896
 
band     6 # energy   -0.26126532 # occ.  2.00000000
 
ion      s     py     pz     px    dxy    dyz    dz2    dxz  x2-y2    tot
    1  0.000  0.000  0.000  0.001  0.000  0.000  0.000  0.000  0.000  0.001
    2  0.009  0.067  0.000  0.200  0.000  0.000  0.000  0.000  0.000  0.275
    3  0.000  0.001  0.000  0.002  0.000  0.000  0.000  0.000  0.000  0.003
    4  0.007  0.153  0.000  0.458  0.000  0.000  0.000  0.000  0.000  0.617
tot    0.016  0.220  0.000  0.660  0.000  0.000  0.000  0.000  0.000  0.896
 
band     7 # energy   -0.16969155 # occ.  2.00000000
 
ion      s     py     pz     px    dxy    dyz    dz2    dxz  x2-y2    tot
    1  0.000  0.206  0.000  0.069  0.000  0.000  0.000  0.000  0.000  0.274
    2  0.000  0.002  0.000  0.001  0.000  0.000  0.000  0.000  0.000  0.003
    3  0.000  0.462  0.000  0.154  0.000  0.000  0.000  0.000  0.000  0.617
    4  0.000  0.005  0.000  0.002  0.000  0.000  0.000  0.000  0.000  0.006
tot    0.000  0.675  0.000  0.225  0.000  0.000  0.000  0.000  0.000  0.900
 
band     8 # energy   -0.13714706 # occ.  2.00000000
 
ion      s     py     pz     px    dxy    dyz    dz2    dxz  x2-y2    tot
    1  0.000  0.002  0.000  0.001  0.000  0.000  0.000  0.000  0.000  0.003
    2  0.000  0.206  0.000  0.069  0.000  0.000  0.000  0.000  0.000  0.274
    3  0.000  0.005  0.000  0.002  0.000  0.000  0.000  0.000  0.000  0.006
    4  0.000  0.463  0.000  0.154  0.000  0.000  0.000  0.000  0.000  0.617
tot    0.000  0.675  0.000  0.225  0.000  0.000  0.000  0.000  0.000  0.900
 
band     9 # energy    6.05567907 # occ.  0.00000000
 
ion      s     py     pz     px    dxy    dyz    dz2    dxz  x2-y2    tot
    1  0.000  0.000  0.000  0.000  0.000  0.000  0.000  0.000  0.000  0.000
    2  0.000  0.000  0.000  0.000  0.000  0.000  0.000  0.000  0.000  0.000
    3  0.054  0.001  0.000  0.002  0.000  0.000  0.000  0.000  0.000  0.056
    4  0.053  0.001  0.000  0.002  0.000  0.000  0.000  0.000  0.000  0.056
tot    0.107  0.001  0.000  0.004  0.000  0.000  0.000  0.000  0.000  0.113
 
band    10 # energy   10.12962059 # occ.  0.00000000
 
ion      s     py     pz     px    dxy    dyz    dz2    dxz  x2-y2    tot
    1  0.000  0.000  0.000  0.000  0.000  0.000  0.000  0.000  0.000  0.000
    2  0.000  0.000  0.000  0.000  0.000  0.000  0.000  0.000  0.000  0.000
    3  0.000  0.000  0.188  0.000  0.000  0.000  0.000  0.000  0.000  0.188
    4  0.000  0.000  0.185  0.000  0.000  0.000  0.000  0.000  0.000  0.185
tot    0.000  0.000  0.374  0.000  0.000  0.000  0.000  0.000  0.000  0.374
 
band    11 # energy   12.47206956 # occ.  0.00000000
 
ion      s     py     pz     px    dxy    dyz    dz2    dxz  x2-y2    tot
    1  0.048  0.022  0.000  0.067  0.000  0.000  0.000  0.000  0.000  0.138
    2  0.047  0.016  0.000  0.048  0.000  0.000  0.000  0.000  0.000  0.112
    3  0.135  0.001  0.000  0.004  0.000  0.000  0.000  0.000  0.000  0.140
    4  0.128  0.001  0.000  0.002  0.000  0.000  0.000  0.000  0.000  0.130
tot    0.357  0.041  0.000  0.122  0.000  0.000  0.000  0.000  0.000  0.519
 
band    12 # energy   12.79361582 # occ.  0.00000000
 
ion      s     py     pz     px    dxy    dyz    dz2    dxz  x2-y2    tot
    1  0.001  0.060  0.000  0.180  0.000  0.000  0.000  0.000  0.000  0.240
    2  0.001  0.057  0.000  0.170  0.000  0.000  0.000  0.000  0.000  0.229
    3  0.003  0.013  0.000  0.039  0.000  0.000  0.000  0.000  0.000  0.055
    4  0.010  0.011  0.000  0.034  0.000  0.000  0.000  0.000  0.000  0.055
tot    0.014  0.141  0.000  0.424  0.000  0.000  0.000  0.000  0.000  0.579
 
band    13 # energy   12.91139394 # occ.  0.00000000
 
ion      s     py     pz     px    dxy    dyz    dz2    dxz  x2-y2    tot
    1  0.029  0.035  0.000  0.105  0.000  0.000  0.000  0.000  0.000  0.169
    2  0.027  0.044  0.000  0.133  0.000  0.000  0.000  0.000  0.000  0.203
    3  0.036  0.013  0.000  0.039  0.000  0.000  0.000  0.000  0.000  0.087
    4  0.032  0.015  0.000  0.044  0.000  0.000  0.000  0.000  0.000  0.092
tot    0.124  0.107  0.000  0.320  0.000  0.000  0.000  0.000  0.000  0.551
 
band    14 # energy   13.03138560 # occ.  0.00000000
 
ion      s     py     pz     px    dxy    dyz    dz2    dxz  x2-y2    tot
    1  0.000  0.308  0.000  0.103  0.000  0.000  0.000  0.000  0.000  0.411
    2  0.000  0.049  0.000  0.016  0.000  0.000  0.000  0.000  0.000  0.065
    3  0.000  0.074  0.000  0.025  0.000  0.000  0.000  0.000  0.000  0.099
    4  0.000  0.011  0.000  0.004  0.000  0.000  0.000  0.000  0.000  0.015
tot    0.000  0.443  0.000  0.148  0.000  0.000  0.000  0.000  0.000  0.590
 
band    15 # energy   13.07071305 # occ.  0.00000000
 
ion      s     py     pz     px    dxy    dyz    dz2    dxz  x2-y2    tot
    1  0.000  0.049  0.000  0.016  0.000  0.000  0.000  0.000  0.000  0.066
    2  0.000  0.309  0.000  0.103  0.000  0.000  0.000  0.000  0.000  0.411
    3  0.000  0.012  0.000  0.004  0.000  0.000  0.000  0.000  0.000  0.015
    4  0.000  0.074  0.000  0.025  0.000  0.000  0.000  0.000  0.000  0.099
tot    0.000  0.444  0.000  0.148  0.000  0.000  0.000  0.000  0.000  0.592
 
band    16 # energy   13.82686734 # occ.  0.00000000
 
ion      s     py     pz     px    dxy    dyz    dz2    dxz  x2-y2    tot
    1  0.000  0.000  0.162  0.000  0.000  0.000  0.000  0.000  0.000  0.162
    2  0.000  0.000  0.159  0.000  0.000  0.000  0.000  0.000  0.000  0.159
    3  0.000  0.000  0.210  0.000  0.000  0.000  0.000  0.000  0.000  0.210
    4  0.000  0.000  0.212  0.000  0.000  0.000  0.000  0.000  0.000  0.212
tot    0.000  0.000  0.742  0.000  0.000  0.000  0.000  0.000  0.000  0.742
 
band    17 # energy   15.47718343 # occ.  0.00000000
 
ion      s     py     pz     px    dxy    dyz    dz2    dxz  x2-y2    tot
    1  0.168  0.000  0.000  0.001  0.000  0.000  0.000  0.000  0.000  0.168
    2  0.169  0.000  0.000  0.001  0.000  0.000  0.000  0.000  0.000  0.170
    3  0.120  0.003  0.000  0.008  0.000  0.000  0.000  0.000  0.000  0.130
    4  0.124  0.003  0.000  0.009  0.000  0.000  0.000  0.000  0.000  0.135
tot    0.580  0.006  0.000  0.018  0.000  0.000  0.000  0.000  0.000  0.604
 
band    18 # energy   16.02409834 # occ.  0.00000000
 
ion      s     py     pz     px    dxy    dyz    dz2    dxz  x2-y2    tot
    1  0.000  0.000  0.276  0.000  0.000  0.000  0.000  0.000  0.000  0.276
    2  0.000  0.000  0.275  0.000  0.000  0.000  0.000  0.000  0.000  0.275
    3  0.000  0.000  0.061  0.000  0.000  0.000  0.000  0.000  0.000  0.061
    4  0.000  0.000  0.062  0.000  0.000  0.000  0.000  0.000  0.000  0.062
tot    0.000  0.000  0.673  0.000  0.000  0.000  0.000  0.000  0.000  0.673
 