<?xml version="1.0" encoding="ISO-8859-1"?>
<modeling>
 <generator>
  <i name="program" type="string">vasp </i>
  <i name="version" type="string">5.4.4.18Apr17-6-g9f103f2a35  </i>
  <i name="subversion" type="string">(build May 10 2019 17:57:18) complex            parallel </i>
  <i name="platform" type="string">LinuxIFC </i>
  <i name="date" type="string">2024 07 15 </i>
  <i name="time" type="string">23:51:23 </i>
 </generator>
 <incar>
  <i type="string" name="SYSTEM"> BN</i>
  <i type="string" name="PREC">normal</i>
  <i type="logical" name="ADDGRID"> T  </i>
  <i type="int" name="ISPIN">     1</i>
  <i type="int" name="ICHARG">    11</i>
  <i name="EDIFF">      0.00010000</i>
  <i name="ENCUT">    500.00000000</i>
  <i type="logical" name="LREAL"> F  </i>
  <i type="logical" name="LPLANE"> T  </i>
  <i type="int" name="ISMEAR">     0</i>
  <i name="SIGMA">      0.05000000</i>
  <i type="int" name="NWRITE">     2</i>
  <i type="int" name="LORBIT">    11</i>
  <v type="int" name="KPOINT_BSE">    -1     0     0     0</v>
 </incar>
 <structure name="primitive_cell" >
  <crystal>
   <varray name="basis" >
    <v>       1.25623732      -2.17586686       0.00000000 </v>
    <v>       1.25623732       2.17586686       0.00000000 </v>
    <v>       0.00000000       0.00000000       7.52645917 </v>
   </varray>
   <i name="volume">     41.14572454 </i>
   <varray name="rec_basis" >
    <v>       0.39801397      -0.22979347       0.00000000 </v>
    <v>       0.39801397       0.22979347       0.00000000 </v>
    <v>       0.00000000       0.00000000       0.13286460 </v>
   </varray>
  </crystal>
  <varray name="positions" >
   <v>       0.00000000       0.00000000       0.00000000 </v>
   <v>       0.33333333      -0.33333333       0.00000000 </v>
   <v>       0.33333333      -0.33333333      -0.50000000 </v>
   <v>      -0.33333333       0.33333333      -0.50000000 </v>
  </varray>
 </structure>
 <varray name="primitive_index" >
  <v type="int" >        1 </v>
  <v type="int" >        3 </v>
  <v type="int" >        2 </v>
  <v type="int" >        4 </v>
 </varray>
 <kpoints>
  <generation param="listgenerated">
   <i name="divisions" type="int">      20 </i>
   <v>       0.00000000       0.00000000       0.00000000 </v>
   <v>       0.50000000       0.00000000       0.00000000 </v>
   <v>       0.30000000       0.30000000       0.00000000 </v>
   <v>       0.00000000       0.00000000       0.00000000 </v>
   <v>       0.00000000       0.00000000       0.50000000 </v>
   <v>       0.50000000       0.00000000       0.50000000 </v>
   <v>       0.30000000       0.30000000       0.50000000 </v>
   <v>       0.00000000       0.00000000       0.50000000 </v>
  </generation>
  <varray name="kpointlist" >
   <v>       0.00000000       0.00000000       0.00000000 </v>
   <v>       0.02631579       0.00000000       0.00000000 </v>
   <v>       0.05263158       0.00000000       0.00000000 </v>
   <v>       0.07894737       0.00000000       0.00000000 </v>
   <v>       0.10526316       0.00000000       0.00000000 </v>
   <v>       0.13157895       0.00000000       0.00000000 </v>
   <v>       0.15789474       0.00000000       0.00000000 </v>
   <v>       0.18421053       0.00000000       0.00000000 </v>
   <v>       0.21052632       0.00000000       0.00000000 </v>
   <v>       0.23684211       0.00000000       0.00000000 </v>
   <v>       0.26315789       0.00000000       0.00000000 </v>
   <v>       0.28947368       0.00000000       0.00000000 </v>
   <v>       0.31578947       0.00000000       0.00000000 </v>
   <v>       0.34210526       0.00000000       0.00000000 </v>
   <v>       0.36842105       0.00000000       0.00000000 </v>
   <v>       0.39473684       0.00000000       0.00000000 </v>
   <v>       0.42105263       0.00000000       0.00000000 </v>
   <v>       0.44736842       0.00000000       0.00000000 </v>
   <v>       0.47368421       0.00000000       0.00000000 </v>
   <v>       0.50000000       0.00000000       0.00000000 </v>
   <v>       0.50000000       0.00000000       0.00000000 </v>
   <v>       0.48947368       0.01578947       0.00000000 </v>
   <v>       0.47894737       0.03157895       0.00000000 </v>
   <v>       0.46842105       0.04736842       0.00000000 </v>
   <v>       0.45789474       0.06315789       0.00000000 </v>
   <v>       0.44736842       0.07894737       0.00000000 </v>
   <v>       0.43684211       0.09473684       0.00000000 </v>
   <v>       0.42631579       0.11052632       0.00000000 </v>
   <v>       0.41578947       0.12631579       0.00000000 </v>
   <v>       0.40526316       0.14210526       0.00000000 </v>
   <v>       0.39473684       0.15789474       0.00000000 </v>
   <v>       0.38421053       0.17368421       0.00000000 </v>
   <v>       0.37368421       0.18947368       0.00000000 </v>
   <v>       0.36315789       0.20526316       0.00000000 </v>
   <v>       0.35263158       0.22105263       0.00000000 </v>
   <v>       0.34210526       0.23684211       0.00000000 </v>
   <v>       0.33157895       0.25263158       0.00000000 </v>
   <v>       0.32105263       0.26842105       0.00000000 </v>
   <v>       0.31052632       0.28421053       0.00000000 </v>
   <v>       0.30000000       0.30000000       0.00000000 </v>
   <v>       0.30000000       0.30000000       0.00000000 </v>
   <v>       0.28421053       0.28421053       0.00000000 </v>
   <v>       0.26842105       0.26842105       0.00000000 </v>
   <v>       0.25263158       0.25263158       0.00000000 </v>
   <v>       0.23684211       0.23684211       0.00000000 </v>
   <v>       0.22105263       0.22105263       0.00000000 </v>
   <v>       0.20526316       0.20526316       0.00000000 </v>
   <v>       0.18947368       0.18947368       0.00000000 </v>
   <v>       0.17368421       0.17368421       0.00000000 </v>
   <v>       0.15789474       0.15789474       0.00000000 </v>
   <v>       0.14210526       0.14210526       0.00000000 </v>
   <v>       0.12631579       0.12631579       0.00000000 </v>
   <v>       0.11052632       0.11052632       0.00000000 </v>
   <v>       0.09473684       0.09473684       0.00000000 </v>
   <v>       0.07894737       0.07894737       0.00000000 </v>
   <v>       0.06315789       0.06315789       0.00000000 </v>
   <v>       0.04736842       0.04736842       0.00000000 </v>
   <v>       0.03157895       0.03157895       0.00000000 </v>
   <v>       0.01578947       0.01578947       0.00000000 </v>
   <v>       0.00000000       0.00000000       0.00000000 </v>
   <v>       0.00000000       0.00000000       0.00000000 </v>
   <v>       0.00000000       0.00000000       0.02631579 </v>
   <v>       0.00000000       0.00000000       0.05263158 </v>
   <v>       0.00000000       0.00000000       0.07894737 </v>
   <v>       0.00000000       0.00000000       0.10526316 </v>
   <v>       0.00000000       0.00000000       0.13157895 </v>
   <v>       0.00000000       0.00000000       0.15789474 </v>
   <v>       0.00000000       0.00000000       0.18421053 </v>
   <v>       0.00000000       0.00000000       0.21052632 </v>
   <v>       0.00000000       0.00000000       0.23684211 </v>
   <v>       0.00000000       0.00000000       0.26315789 </v>
   <v>       0.00000000       0.00000000       0.28947368 </v>
   <v>       0.00000000       0.00000000       0.31578947 </v>
   <v>       0.00000000       0.00000000       0.34210526 </v>
   <v>       0.00000000       0.00000000       0.36842105 </v>
   <v>       0.00000000       0.00000000       0.39473684 </v>
   <v>       0.00000000       0.00000000       0.42105263 </v>
   <v>       0.00000000       0.00000000       0.44736842 </v>
   <v>       0.00000000       0.00000000       0.47368421 </v>
   <v>       0.00000000       0.00000000       0.50000000 </v>
   <v>       0.00000000       0.00000000       0.50000000 </v>
   <v>       0.02631579       0.00000000       0.50000000 </v>
   <v>       0.05263158       0.00000000       0.50000000 </v>
   <v>       0.07894737       0.00000000       0.50000000 </v>
   <v>       0.10526316       0.00000000       0.50000000 </v>
   <v>       0.13157895       0.00000000       0.50000000 </v>
   <v>       0.15789474       0.00000000       0.50000000 </v>
   <v>       0.18421053       0.00000000       0.50000000 </v>
   <v>       0.21052632       0.00000000       0.50000000 </v>
   <v>       0.23684211       0.00000000       0.50000000 </v>
   <v>       0.26315789       0.00000000       0.50000000 </v>
   <v>       0.28947368       0.00000000       0.50000000 </v>
   <v>       0.31578947       0.00000000       0.50000000 </v>
   <v>       0.34210526       0.00000000       0.50000000 </v>
   <v>       0.36842105       0.00000000       0.50000000 </v>
   <v>       0.39473684       0.00000000       0.50000000 </v>
   <v>       0.42105263       0.00000000       0.50000000 </v>
   <v>       0.44736842       0.00000000       0.50000000 </v>
   <v>       0.47368421       0.00000000       0.50000000 </v>
   <v>       0.50000000       0.00000000       0.50000000 </v>
   <v>       0.50000000       0.00000000       0.50000000 </v>
   <v>       0.48947368       0.01578947       0.50000000 </v>
   <v>       0.47894737       0.03157895       0.50000000 </v>
   <v>       0.46842105       0.04736842       0.50000000 </v>
   <v>       0.45789474       0.06315789       0.50000000 </v>
   <v>       0.44736842       0.07894737       0.50000000 </v>
   <v>       0.43684211       0.09473684       0.50000000 </v>
   <v>       0.42631579       0.11052632       0.50000000 </v>
   <v>       0.41578947       0.12631579       0.50000000 </v>
   <v>       0.40526316       0.14210526       0.50000000 </v>
   <v>       0.39473684       0.15789474       0.50000000 </v>
   <v>       0.38421053       0.17368421       0.50000000 </v>
   <v>       0.37368421       0.18947368       0.50000000 </v>
   <v>       0.36315789       0.20526316       0.50000000 </v>
   <v>       0.35263158       0.22105263       0.50000000 </v>
   <v>       0.34210526       0.23684211       0.50000000 </v>
   <v>       0.33157895       0.25263158       0.50000000 </v>
   <v>       0.32105263       0.26842105       0.50000000 </v>
   <v>       0.31052632       0.28421053       0.50000000 </v>
   <v>       0.30000000       0.30000000       0.50000000 </v>
   <v>       0.30000000       0.30000000       0.50000000 </v>
   <v>       0.28421053       0.28421053       0.50000000 </v>
   <v>       0.26842105       0.26842105       0.50000000 </v>
   <v>       0.25263158       0.25263158       0.50000000 </v>
   <v>       0.23684211       0.23684211       0.50000000 </v>
   <v>       0.22105263       0.22105263       0.50000000 </v>
   <v>       0.20526316       0.20526316       0.50000000 </v>
   <v>       0.18947368       0.18947368       0.50000000 </v>
   <v>       0.17368421       0.17368421       0.50000000 </v>
   <v>       0.15789474       0.15789474       0.50000000 </v>
   <v>       0.14210526       0.14210526       0.50000000 </v>
   <v>       0.12631579       0.12631579       0.50000000 </v>
   <v>       0.11052632       0.11052632       0.50000000 </v>
   <v>       0.09473684       0.09473684       0.50000000 </v>
   <v>       0.07894737       0.07894737       0.50000000 </v>
   <v>       0.06315789       0.06315789       0.50000000 </v>
   <v>       0.04736842       0.04736842       0.50000000 </v>
   <v>       0.03157895       0.03157895       0.50000000 </v>
   <v>       0.01578947       0.01578947       0.50000000 </v>
   <v>       0.00000000       0.00000000       0.50000000 </v>
  </varray>
  <varray name="weights" >
   <v>       0.00714286 </v>
   <v>       0.00714286 </v>
   <v>       0.00714286 </v>
   <v>       0.00714286 </v>
   <v>       0.00714286 </v>
   <v>       0.00714286 </v>
   <v>       0.00714286 </v>
   <v>       0.00714286 </v>
   <v>       0.00714286 </v>
   <v>       0.00714286 </v>
   <v>       0.00714286 </v>
   <v>       0.00714286 </v>
   <v>       0.00714286 </v>
   <v>       0.00714286 </v>
   <v>       0.00714286 </v>
   <v>       0.00714286 </v>
   <v>       0.00714286 </v>
   <v>       0.00714286 </v>
   <v>       0.00714286 </v>
   <v>       0.00714286 </v>
   <v>       0.00714286 </v>
   <v>       0.00714286 </v>
   <v>       0.00714286 </v>
   <v>       0.00714286 </v>
   <v>       0.00714286 </v>
   <v>       0.00714286 </v>
   <v>       0.00714286 </v>
   <v>       0.00714286 </v>
   <v>       0.00714286 </v>
   <v>       0.00714286 </v>
   <v>       0.00714286 </v>
   <v>       0.00714286 </v>
   <v>       0.00714286 </v>
   <v>       0.00714286 </v>
   <v>       0.00714286 </v>
   <v>       0.00714286 </v>
   <v>       0.00714286 </v>
   <v>       0.00714286 </v>
   <v>       0.00714286 </v>
   <v>       0.00714286 </v>
   <v>       0.00714286 </v>
   <v>       0.00714286 </v>
   <v>       0.00714286 </v>
   <v>       0.00714286 </v>
   <v>       0.00714286 </v>
   <v>       0.00714286 </v>
   <v>       0.00714286 </v>
   <v>       0.00714286 </v>
   <v>       0.00714286 </v>
   <v>       0.00714286 </v>
   <v>       0.00714286 </v>
   <v>       0.00714286 </v>
   <v>       0.00714286 </v>
   <v>       0.00714286 </v>
   <v>       0.00714286 </v>
   <v>       0.00714286 </v>
   <v>       0.00714286 </v>
   <v>       0.00714286 </v>
   <v>       0.00714286 </v>
   <v>       0.00714286 </v>
   <v>       0.00714286 </v>
   <v>       0.00714286 </v>
   <v>       0.00714286 </v>
   <v>       0.00714286 </v>
   <v>       0.00714286 </v>
   <v>       0.00714286 </v>
   <v>       0.00714286 </v>
   <v>       0.00714286 </v>
   <v>       0.00714286 </v>
   <v>       0.00714286 </v>
   <v>       0.00714286 </v>
   <v>       0.00714286 </v>
   <v>       0.00714286 </v>
   <v>       0.00714286 </v>
   <v>       0.00714286 </v>
   <v>       0.00714286 </v>
   <v>       0.00714286 </v>
   <v>       0.00714286 </v>
   <v>       0.00714286 </v>
   <v>       0.00714286 </v>
   <v>       0.00714286 </v>
   <v>       0.00714286 </v>
   <v>       0.00714286 </v>
   <v>       0.00714286 </v>
   <v>       0.00714286 </v>
   <v>       0.00714286 </v>
   <v>       0.00714286 </v>
   <v>       0.00714286 </v>
   <v>       0.00714286 </v>
   <v>       0.00714286 </v>
   <v>       0.00714286 </v>
   <v>       0.00714286 </v>
   <v>       0.00714286 </v>
   <v>       0.00714286 </v>
   <v>       0.00714286 </v>
   <v>       0.00714286 </v>
   <v>       0.00714286 </v>
   <v>       0.00714286 </v>
   <v>       0.00714286 </v>
   <v>       0.00714286 </v>
   <v>       0.00714286 </v>
   <v>       0.00714286 </v>
   <v>       0.00714286 </v>
   <v>       0.00714286 </v>
   <v>       0.00714286 </v>
   <v>       0.00714286 </v>
   <v>       0.00714286 </v>
   <v>       0.00714286 </v>
   <v>       0.00714286 </v>
   <v>       0.00714286 </v>
   <v>       0.00714286 </v>
   <v>       0.00714286 </v>
   <v>       0.00714286 </v>
   <v>       0.00714286 </v>
   <v>       0.00714286 </v>
   <v>       0.00714286 </v>
   <v>       0.00714286 </v>
   <v>       0.00714286 </v>
   <v>       0.00714286 </v>
   <v>       0.00714286 </v>
   <v>       0.00714286 </v>
   <v>       0.00714286 </v>
   <v>       0.00714286 </v>
   <v>       0.00714286 </v>
   <v>       0.00714286 </v>
   <v>       0.00714286 </v>
   <v>       0.00714286 </v>
   <v>       0.00714286 </v>
   <v>       0.00714286 </v>
   <v>       0.00714286 </v>
   <v>       0.00714286 </v>
   <v>       0.00714286 </v>
   <v>       0.00714286 </v>
   <v>       0.00714286 </v>
   <v>       0.00714286 </v>
   <v>       0.00714286 </v>
   <v>       0.00714286 </v>
   <v>       0.00714286 </v>
   <v>       0.00714286 </v>
   <v>       0.00714286 </v>
  </varray>
 </kpoints>
 <parameters>
  <separator name="general" >
   <i type="string" name="SYSTEM">BN</i>
   <i type="logical" name="LCOMPAT"> F  </i>
  </separator>
  <separator name="electronic" >
   <i type="string" name="PREC">normal</i>
   <i name="ENMAX">    500.00000000</i>
   <i name="ENAUG">    627.11200000</i>
   <i name="EDIFF">      0.00010000</i>
   <i type="int" name="IALGO">    38</i>
   <i type="int" name="IWAVPR">    10</i>
   <i type="int" name="NBANDS">    20</i>
   <i name="NELECT">     16.00000000</i>
   <i type="int" name="TURBO">     0</i>
   <i type="int" name="IRESTART">     0</i>
   <i type="int" name="NREBOOT">     0</i>
   <i type="int" name="NMIN">     0</i>
   <i name="EREF">      0.00000000</i>
   <separator name="electronic smearing" >
    <i type="int" name="ISMEAR">     0</i>
    <i name="SIGMA">      0.05000000</i>
    <i name="KSPACING">      0.50000000</i>
    <i type="logical" name="KGAMMA"> T  </i>
   </separator>
   <separator name="electronic projectors" >
    <i type="logical" name="LREAL"> F  </i>
    <v name="ROPT">      0.00000000      0.00000000</v>
    <i type="int" name="LMAXPAW">  -100</i>
    <i type="int" name="LMAXMIX">     2</i>
    <i type="logical" name="NLSPLINE"> F  </i>
   </separator>
   <separator name="electronic startup" >
    <i type="int" name="ISTART">     1</i>
    <i type="int" name="ICHARG">    11</i>
    <i type="int" name="INIWAV">     1</i>
   </separator>
   <separator name="electronic spin" >
    <i type="int" name="ISPIN">     1</i>
    <i type="logical" name="LNONCOLLINEAR"> F  </i>
    <v name="MAGMOM">      1.00000000      1.00000000      1.00000000      1.00000000</v>
    <i name="NUPDOWN">     -1.00000000</i>
    <i type="logical" name="LSORBIT"> F  </i>
    <v name="SAXIS">      0.00000000      0.00000000      1.00000000</v>
    <i type="logical" name="LSPIRAL"> F  </i>
    <v name="QSPIRAL">      0.00000000      0.00000000      0.00000000</v>
    <i type="logical" name="LZEROZ"> F  </i>
   </separator>
   <separator name="electronic exchange-correlation" >
    <i type="logical" name="LASPH"> F  </i>
    <i type="logical" name="LMETAGGA"> F  </i>
   </separator>
   <separator name="electronic convergence" >
    <i type="int" name="NELM">    60</i>
    <i type="int" name="NELMDL">     0</i>
    <i type="int" name="NELMIN">     2</i>
    <i name="ENINI">    500.00000000</i>
    <separator name="electronic convergence detail" >
     <i type="logical" name="LDIAG"> T  </i>
     <i type="logical" name="LSUBROT"> F  </i>
     <i name="WEIMIN">      0.00000000</i>
     <i name="EBREAK">      0.00000125</i>
     <i name="DEPER">      0.30000000</i>
     <i type="int" name="NRMM">     4</i>
     <i name="TIME">      0.40000000</i>
    </separator>
   </separator>
   <separator name="electronic mixer" >
    <i name="AMIX">      0.40000000</i>
    <i name="BMIX">      1.00000000</i>
    <i name="AMIN">      0.10000000</i>
    <i name="AMIX_MAG">      1.60000000</i>
    <i name="BMIX_MAG">      1.00000000</i>
    <separator name="electronic mixer details" >
     <i type="int" name="IMIX">     4</i>
     <i type="logical" name="MIXFIRST"> F  </i>
     <i type="int" name="MAXMIX">   -45</i>
     <i name="WC">    100.00000000</i>
     <i type="int" name="INIMIX">     1</i>
     <i type="int" name="MIXPRE">     1</i>
     <i type="int" name="MREMOVE">     5</i>
    </separator>
   </separator>
   <separator name="electronic dipolcorrection" >
    <i type="logical" name="LDIPOL"> F  </i>
    <i type="logical" name="LMONO"> F  </i>
    <i type="int" name="IDIPOL">     0</i>
    <i name="EPSILON">      1.00000000</i>
    <v name="DIPOL">   -100.00000000   -100.00000000   -100.00000000</v>
    <i name="EFIELD">      0.00000000</i>
   </separator>
  </separator>
  <separator name="grids" >
   <i type="int" name="NGX">    14</i>
   <i type="int" name="NGY">    14</i>
   <i type="int" name="NGZ">    42</i>
   <i type="int" name="NGXF">    28</i>
   <i type="int" name="NGYF">    28</i>
   <i type="int" name="NGZF">    84</i>
   <i type="logical" name="ADDGRID"> T  </i>
  </separator>
  <separator name="ionic" >
   <i type="int" name="NSW">     0</i>
   <i type="int" name="IBRION">    -1</i>
   <i type="int" name="MDALGO">     0</i>
   <i type="int" name="ISIF">     2</i>
   <i name="PSTRESS">      0.00000000</i>
   <i name="EDIFFG">      0.00100000</i>
   <i type="int" name="NFREE">     0</i>
   <i name="POTIM">      0.50000000</i>
   <i name="SMASS">     -3.00000000</i>
   <i name="SCALEE">      1.00000000</i>
  </separator>
  <separator name="ionic md" >
   <i name="TEBEG">      0.00010000</i>
   <i name="TEEND">      0.00010000</i>
   <i type="int" name="NBLOCK">     1</i>
   <i type="int" name="KBLOCK">     1</i>
   <i type="int" name="NPACO">   256</i>
   <i name="APACO">     16.00000000</i>
  </separator>
  <separator name="symmetry" >
   <i type="int" name="ISYM">     2</i>
   <i name="SYMPREC">      0.00001000</i>
  </separator>
  <separator name="dos" >
   <i type="int" name="LORBIT">    11</i>
   <v name="RWIGS">     -1.00000000     -1.00000000</v>
   <i type="int" name="NEDOS">   301</i>
   <i name="EMIN">     10.00000000</i>
   <i name="EMAX">    -10.00000000</i>
   <i name="EFERMI">      0.00000000</i>
  </separator>
  <separator name="writing" >
   <i type="int" name="NWRITE">     2</i>
   <i type="logical" name="LWAVE"> T  </i>
   <i type="logical" name="LDOWNSAMPLE"> F  </i>
   <i type="logical" name="LCHARG"> T  </i>
   <i type="logical" name="LPARD"> F  </i>
   <i type="logical" name="LVTOT"> F  </i>
   <i type="logical" name="LVHAR"> F  </i>
   <i type="logical" name="LELF"> F  </i>
   <i type="logical" name="LOPTICS"> F  </i>
   <v name="STM">      0.00000000      0.00000000      0.00000000      0.00000000      0.00000000      0.00000000      0.00000000</v>
  </separator>
  <separator name="performance" >
   <i type="int" name="NPAR">    20</i>
   <i type="int" name="NSIM">     4</i>
   <i type="int" name="NBLK">    -1</i>
   <i type="logical" name="LPLANE"> T  </i>
   <i type="logical" name="LSCALAPACK"> T  </i>
   <i type="logical" name="LSCAAWARE"> F  </i>
   <i type="logical" name="LSCALU"> F  </i>
   <i type="logical" name="LASYNC"> F  </i>
   <i type="logical" name="LORBITALREAL"> F  </i>
  </separator>
  <separator name="miscellaneous" >
   <i type="int" name="IDIOT">     3</i>
   <i type="int" name="ISPECIAL">     0</i>
   <i type="logical" name="LMUSIC"> F  </i>
   <v name="POMASS">     10.81100000     14.00100000</v>
   <v name="DARWINR">      0.00000000      0.00000000</v>
   <v name="DARWINV">      1.00000000      1.00000000</v>
   <i type="logical" name="LCORR"> T  </i>
  </separator>
  <i type="logical" name="GGA_COMPAT"> T  </i>
  <i type="logical" name="LBERRY"> F  </i>
  <i type="int" name="ICORELEVEL">     0</i>
  <i type="logical" name="LDAU"> F  </i>
  <i type="int" name="I_CONSTRAINED_M">     0</i>
  <separator name="electronic exchange-correlation" >
   <i type="string" name="GGA">--</i>
   <i type="int" name="VOSKOWN">     0</i>
   <i type="logical" name="LHFCALC"> F  </i>
   <i type="string" name="PRECFOCK"></i>
   <i type="logical" name="LSYMGRAD"> F  </i>
   <i type="logical" name="LHFONE"> F  </i>
   <i type="logical" name="LRHFCALC"> F  </i>
   <i type="logical" name="LTHOMAS"> F  </i>
   <i type="logical" name="LMODELHF"> F  </i>
   <i name="ENCUT4O">     -1.00000000</i>
   <i type="int" name="EXXOEP">     0</i>
   <i type="int" name="FOURORBIT">     0</i>
   <i name="AEXX">      0.00000000</i>
   <i name="HFALPHA">      0.00000000</i>
   <i name="MCALPHA">      0.00000000</i>
   <i name="ALDAX">      1.00000000</i>
   <i name="AGGAX">      1.00000000</i>
   <i name="ALDAC">      1.00000000</i>
   <i name="AGGAC">      1.00000000</i>
   <i type="int" name="NKREDX">     1</i>
   <i type="int" name="NKREDY">     1</i>
   <i type="int" name="NKREDZ">     1</i>
   <i type="logical" name="SHIFTRED"> F  </i>
   <i type="logical" name="ODDONLY"> F  </i>
   <i type="logical" name="EVENONLY"> F  </i>
   <i type="int" name="LMAXFOCK">     0</i>
   <i type="int" name="NMAXFOCKAE">     0</i>
   <i type="logical" name="LFOCKAEDFT"> F  </i>
   <i name="HFSCREEN">      0.00000000</i>
   <i name="HFSCREENC">      0.00000000</i>
   <i type="int" name="NBANDSGWLOW">     0</i>
  </separator>
  <separator name="vdW DFT" >
   <i type="logical" name="LUSE_VDW"> F  </i>
   <i name="Zab_VDW">     -0.84910000</i>
   <i name="PARAM1">      0.12340000</i>
   <i name="PARAM2">      1.00000000</i>
   <i name="PARAM3">      0.00000000</i>
  </separator>
  <separator name="model GW" >
   <i type="int" name="MODEL_GW">     0</i>
   <i name="MODEL_EPS0">      6.17185868</i>
   <i name="MODEL_ALPHA">      1.00000000</i>
  </separator>
  <separator name="linear response parameters" >
   <i type="logical" name="LEPSILON"> F  </i>
   <i type="logical" name="LRPA"> F  </i>
   <i type="logical" name="LNABLA"> F  </i>
   <i type="logical" name="LVEL"> F  </i>
   <i type="int" name="KINTER">     0</i>
   <i name="CSHIFT">      0.10000000</i>
   <i name="OMEGAMAX">     -1.00000000</i>
   <i name="DEG_THRESHOLD">      0.00200000</i>
   <i name="RTIME">     -0.10000000</i>
   <i name="WPLASMAI">      0.00000000</i>
   <v name="DFIELD">      0.00000000      0.00000000      0.00000000</v>
   <v name="WPLASMA">      0.00000000      0.00000000      0.00000000      0.00000000      0.00000000      0.00000000      0.00000000      0.00000000      0.00000000</v>
  </separator>
  <separator name="orbital magnetization" >
   <i type="logical" name="NUCIND"> F  </i>
   <v name="MAGPOS">      0.00000000      0.00000000      0.00000000</v>
   <i type="logical" name="LNICSALL"> T  </i>
   <i type="logical" name="ORBITALMAG"> F  </i>
   <i type="logical" name="LMAGBLOCH"> F  </i>
   <i type="logical" name="LCHIMAG"> F  </i>
   <i type="logical" name="LGAUGE"> T  </i>
   <i type="int" name="MAGATOM">     0</i>
   <v name="MAGDIPOL">      0.00000000      0.00000000      0.00000000</v>
   <v name="AVECCONST">      0.00000000      0.00000000      0.00000000</v>
  </separator>
  <separator name="response functions" >
   <i type="logical" name="LADDER"> F  </i>
   <i type="logical" name="LRPAFORCE"> F  </i>
   <i type="logical" name="LFXC"> F  </i>
   <i type="logical" name="LHARTREE"> T  </i>
   <i type="int" name="IBSE">     0</i>
   <v type="int" name="KPOINT">    -1     0     0     0</v>
   <i type="logical" name="LTCTE"> F  </i>
   <i type="logical" name="LTETE"> F  </i>
   <i type="logical" name="LTRIPLET"> F  </i>
   <i type="logical" name="LFXCEPS"> F  </i>
   <i type="logical" name="LFXHEG"> F  </i>
   <i type="int" name="NATURALO">     2</i>
   <i type="logical" name="L2ORDER"> F  </i>
   <i type="logical" name="LMP2LT"> F  </i>
   <i type="logical" name="LUSEW"> F  </i>
   <i name="ENCUTGW">     -2.00000000</i>
   <i name="ENCUTGWSOFT">     -2.00000000</i>
   <i name="ENCUTLF">     -1.00000000</i>
   <i type="int" name="LMAXMP2">    -1</i>
   <i name="SCISSOR">      0.00000000</i>
   <i type="int" name="NOMEGA">     0</i>
   <i type="int" name="NOMEGAR">     0</i>
   <i type="int" name="NBANDSGW">    -1</i>
   <i type="int" name="NBANDSO">    -1</i>
   <i type="int" name="NBANDSV">    -1</i>
   <i type="int" name="NELM">     1</i>
   <i type="int" name="NELMHF">     1</i>
   <i type="int" name="DIM">     3</i>
   <i type="int" name="ANTIRES">     0</i>
   <i name="OMEGAMAX">    -30.00000000</i>
   <i name="OMEGAMIN">    -30.00000000</i>
   <i name="OMEGATL">   -200.00000000</i>
   <i type="int" name="OMEGAGRID">   140</i>
   <i name="CSHIFT">     -0.10000000</i>
   <i type="logical" name="SELFENERGY"> F  </i>
   <i type="logical" name="LSPECTRAL"> F  </i>
   <i type="logical" name="LSPECTRALGW"> F  </i>
   <i type="logical" name="LSINGLES"> F  </i>
   <i type="logical" name="LFERMIGW"> F  </i>
   <i type="logical" name="ODDONLYGW"> F  </i>
   <i type="logical" name="EVENONLYGW"> F  </i>
   <i type="int" name="NKREDLFX">     1</i>
   <i type="int" name="NKREDLFY">     1</i>
   <i type="int" name="NKREDLFZ">     1</i>
   <i type="int" name="MAXMEM">  2800</i>
   <i type="int" name="TELESCOPE">     0</i>
   <i type="int" name="TAUPAR">     1</i>
   <i type="int" name="OMEGAPAR">    -1</i>
   <i name="LAMBDA">      1.00000000</i>
  </separator>
  <separator name="External order field" >
   <i name="OFIELD_KAPPA">      0.00000000</i>
   <v name="OFIELD_K">      0.00000000      0.00000000      0.00000000</v>
   <i name="OFIELD_Q6_NEAR">      0.00000000</i>
   <i name="OFIELD_Q6_FAR">      0.00000000</i>
   <i name="OFIELD_A">      0.00000000</i>
  </separator>
 </parameters>
 <atominfo>
  <atoms>       4 </atoms>
  <types>       2 </types>
  <array name="atoms" >
   <dimension dim="1">ion</dimension>
   <field type="string">element</field>
   <field type="int">atomtype</field>
   <set>
    <rc><c>B </c><c>   1</c></rc>
    <rc><c>B </c><c>   1</c></rc>
    <rc><c>N </c><c>   2</c></rc>
    <rc><c>N </c><c>   2</c></rc>
   </set>
  </array>
  <array name="atomtypes" >
   <dimension dim="1">type</dimension>
   <field type="int">atomspertype</field>
   <field type="string">element</field>
   <field>mass</field>
   <field>valence</field>
   <field type="string">pseudopotential</field>
   <set>
    <rc><c>   2</c><c>B </c><c>     10.81100000</c><c>      3.00000000</c><c>  PAW_PBE B 06Sep2000                   </c></rc>
    <rc><c>   2</c><c>N </c><c>     14.00100000</c><c>      5.00000000</c><c>  PAW_PBE N 08Apr2002                   </c></rc>
   </set>
  </array>
 </atominfo>
 <structure name="initialpos" >
  <crystal>
   <varray name="basis" >
    <v>       1.25623732      -2.17586686       0.00000000 </v>
    <v>       1.25623732       2.17586686       0.00000000 </v>
    <v>       0.00000000       0.00000000       7.52645917 </v>
   </varray>
   <i name="volume">     41.14572454 </i>
   <varray name="rec_basis" >
    <v>       0.39801397      -0.22979347       0.00000000 </v>
    <v>       0.39801397       0.22979347       0.00000000 </v>
    <v>       0.00000000       0.00000000       0.13286460 </v>
   </varray>
  </crystal>
  <varray name="positions" >
   <v>       0.00000000       0.00000000       0.00000000 </v>
   <v>       0.33333333       0.66666667       0.50000000 </v>
   <v>       0.33333333       0.66666667       0.00000000 </v>
   <v>       0.66666667       0.33333333       0.50000000 </v>
  </varray>
 </structure>
 <calculation>
  <scstep>
   <time name="dav">    0.74    0.74</time>
   <time name="total">    0.74    0.75</time>
   <energy>
    <i name="alphaZ">     34.59384069 </i>
    <i name="ewald">   -421.88703305 </i>
    <i name="hartreedc">   -281.52026677 </i>
    <i name="XCdc">     56.67703550 </i>
    <i name="pawpsdc">   1850.55118212 </i>
    <i name="pawaedc">  -1852.01157871 </i>
    <i name="eentropy">     -0.00000000 </i>
    <i name="bandstr">    -89.67577153 </i>
    <i name="atom">    671.40793249 </i>
    <i name="e_fr_energy">    -31.86465925 </i>
    <i name="e_wo_entrp">    -31.86465925 </i>
    <i name="e_0_energy">    -31.86465925 </i>
   </energy>
  </scstep>
  <scstep>
   <time name="dav">    0.72    0.73</time>
   <time name="total">    0.72    0.73</time>
   <energy>
    <i name="e_fr_energy">    -32.19844335 </i>
    <i name="e_wo_entrp">    -32.19844335 </i>
    <i name="e_0_energy">    -32.19844335 </i>
   </energy>
  </scstep>
  <scstep>
   <time name="dav">    1.27    1.28</time>
   <time name="total">    1.27    1.28</time>
   <energy>
    <i name="e_fr_energy">    -32.19887430 </i>
    <i name="e_wo_entrp">    -32.19887430 </i>
    <i name="e_0_energy">    -32.19887430 </i>
   </energy>
  </scstep>
  <scstep>
   <time name="dav">    0.68    0.69</time>
   <time name="total">    0.68    0.69</time>
   <energy>
    <i name="alphaZ">     34.59384069 </i>
    <i name="ewald">   -421.88703305 </i>
    <i name="hartreedc">   -281.52026677 </i>
    <i name="XCdc">     56.67703550 </i>
    <i name="pawpsdc">   1850.55118212 </i>
    <i name="pawaedc">  -1852.01157871 </i>
    <i name="eentropy">     -0.00000000 </i>
    <i name="bandstr">    -90.00998671 </i>
    <i name="atom">    671.40793249 </i>
    <i name="e_fr_energy">    -32.19887443 </i>
    <i name="e_wo_entrp">    -32.19887443 </i>
    <i name="e_0_energy">    -32.19887443 </i>
   </energy>
  </scstep>
  <structure>
   <crystal>
    <varray name="basis" >
     <v>       1.25623732      -2.17586686       0.00000000 </v>
     <v>       1.25623732       2.17586686       0.00000000 </v>
     <v>       0.00000000       0.00000000       7.52645917 </v>
    </varray>
    <i name="volume">     41.14572454 </i>
    <varray name="rec_basis" >
     <v>       0.39801397      -0.22979347       0.00000000 </v>
     <v>       0.39801397       0.22979347       0.00000000 </v>
     <v>       0.00000000       0.00000000       0.13286460 </v>
    </varray>
   </crystal>
   <varray name="positions" >
    <v>       0.00000000       0.00000000       0.00000000 </v>
    <v>       0.33333333       0.66666667       0.50000000 </v>
    <v>       0.33333333       0.66666667       0.00000000 </v>
    <v>       0.66666667       0.33333333       0.50000000 </v>
   </varray>
  </structure>
  <varray name="forces" >
   <v>       0.00000000      -0.00000000       0.00000000 </v>
   <v>       0.00000000       0.00000000       0.00000000 </v>
   <v>       0.00000000       0.00000000       0.00000000 </v>
   <v>      -0.00000000       0.00000000       0.00000000 </v>
  </varray>
  <varray name="stress" >
   <v>     156.04209051       0.00000000      -0.00000000 </v>
   <v>       0.00000000     156.04209051       0.00000000 </v>
   <v>       0.00000000       0.00000000     157.30645452 </v>
  </varray>
  <energy>
   <i name="e_fr_energy">    -32.19887443 </i>
   <i name="e_wo_entrp">    -32.19887443 </i>
   <i name="e_0_energy">     -0.00000000 </i>
  </energy>
  <time name="totalsc">    4.05    4.10</time>
  <eigenvalues>
   <array>
    <dimension dim="1">band</dimension>
    <dimension dim="2">kpoint</dimension>
    <dimension dim="3">spin</dimension>
    <field>eigene</field>
    <field>occ</field>
    <set>
     <set comment="spin 1">
      <set comment="kpoint 1">
       <r>  -16.3669    1.0000 </r>
       <r>  -16.2569    1.0000 </r>
       <r>   -4.4312    1.0000 </r>
       <r>   -3.3249    1.0000 </r>
       <r>   -0.0640    1.0000 </r>
       <r>   -0.0640    1.0000 </r>
       <r>   -0.0317    1.0000 </r>
       <r>   -0.0317    1.0000 </r>
       <r>    5.9564    0.0000 </r>
       <r>   10.1146    0.0000 </r>
       <r>   12.4665    0.0000 </r>
       <r>   12.7936    0.0000 </r>
       <r>   12.7936    0.0000 </r>
       <r>   12.8328    0.0000 </r>
       <r>   12.8329    0.0000 </r>
       <r>   14.0020    0.0000 </r>
       <r>   15.2973    0.0000 </r>
       <r>   16.1751    0.0000 </r>
       <r>   19.5843    0.0000 </r>
       <r>   25.6325    0.0000 </r>
      </set>
      <set comment="kpoint 2">
       <r>  -16.3535    1.0000 </r>
       <r>  -16.2438    1.0000 </r>
       <r>   -4.4129    1.0000 </r>
       <r>   -3.3078    1.0000 </r>
       <r>   -0.1222    1.0000 </r>
       <r>   -0.0909    1.0000 </r>
       <r>   -0.0901    1.0000 </r>
       <r>   -0.0586    1.0000 </r>
       <r>    5.9816    0.0000 </r>
       <r>   10.1185    0.0000 </r>
       <r>   12.4741    0.0000 </r>
       <r>   12.8081    0.0000 </r>
       <r>   12.8320    0.0000 </r>
       <r>   12.8535    0.0000 </r>
       <r>   12.8928    0.0000 </r>
       <r>   13.9580    0.0000 </r>
       <r>   15.3430    0.0000 </r>
       <r>   16.1364    0.0000 </r>
       <r>   19.6161    0.0000 </r>
       <r>   25.5819    0.0000 </r>
      </set>
      <set comment="kpoint 3">
       <r>  -16.3134    1.0000 </r>
       <r>  -16.2043    1.0000 </r>
       <r>   -4.3580    1.0000 </r>
       <r>   -3.2565    1.0000 </r>
       <r>   -0.2933    1.0000 </r>
       <r>   -0.2613    1.0000 </r>
       <r>   -0.1697    1.0000 </r>
       <r>   -0.1371    1.0000 </r>
       <r>    6.0557    0.0000 </r>
       <r>   10.1296    0.0000 </r>
       <r>   12.4721    0.0000 </r>
       <r>   12.7936    0.0000 </r>
       <r>   12.9114    0.0000 </r>
       <r>   13.0314    0.0000 </r>
       <r>   13.0707    0.0000 </r>
       <r>   13.8269    0.0000 </r>
       <r>   15.4772    0.0000 </r>
       <r>   16.0241    0.0000 </r>
       <r>   19.7090    0.0000 </r>
       <r>   25.4228    0.0000 </r>
      </set>
      <set comment="kpoint 4">
       <r>  -16.2469    1.0000 </r>
       <r>  -16.1388    1.0000 </r>
       <r>   -4.2667    1.0000 </r>
       <r>   -3.1714    1.0000 </r>
       <r>   -0.5674    1.0000 </r>
       <r>   -0.5349    1.0000 </r>
       <r>   -0.2952    1.0000 </r>
       <r>   -0.2624    1.0000 </r>
       <r>    6.1755    0.0000 </r>
       <r>   10.1440    0.0000 </r>
       <r>   12.4308    0.0000 </r>
       <r>   12.7550    0.0000 </r>
       <r>   13.0940    0.0000 </r>
       <r>   13.3211    0.0000 </r>
       <r>   13.3606    0.0000 </r>
       <r>   13.6117    0.0000 </r>
       <r>   15.6920    0.0000 </r>
       <r>   15.8461    0.0000 </r>
       <r>   19.8557    0.0000 </r>
       <r>   25.1369    0.0000 </r>
      </set>
      <set comment="kpoint 5">
       <r>  -16.1543    1.0000 </r>
       <r>  -16.0473    1.0000 </r>
       <r>   -4.1394    1.0000 </r>
       <r>   -3.0528    1.0000 </r>
       <r>   -0.9299    1.0000 </r>
       <r>   -0.8964    1.0000 </r>
       <r>   -0.4595    1.0000 </r>
       <r>   -0.4263    1.0000 </r>
       <r>    6.3368    0.0000 </r>
       <r>   10.1555    0.0000 </r>
       <r>   12.3545    0.0000 </r>
       <r>   12.7047    0.0000 </r>
       <r>   13.3172    0.0000 </r>
       <r>   13.3599    0.0000 </r>
       <r>   13.7141    0.0000 </r>
       <r>   13.7538    0.0000 </r>
       <r>   15.6164    0.0000 </r>
       <r>   15.9764    0.0000 </r>
       <r>   20.0456    0.0000 </r>
       <r>   24.7111    0.0000 </r>
      </set>
      <set comment="kpoint 6">
       <r>  -16.0360    1.0000 </r>
       <r>  -15.9307    1.0000 </r>
       <r>   -3.9766    1.0000 </r>
       <r>   -2.9015    1.0000 </r>
       <r>   -1.3645    1.0000 </r>
       <r>   -1.3298    1.0000 </r>
       <r>   -0.6537    1.0000 </r>
       <r>   -0.6201    1.0000 </r>
       <r>    6.5361    0.0000 </r>
       <r>   10.1535    0.0000 </r>
       <r>   12.2561    0.0000 </r>
       <r>   12.6461    0.0000 </r>
       <r>   12.9494    0.0000 </r>
       <r>   13.6882    0.0000 </r>
       <r>   14.1998    0.0000 </r>
       <r>   14.2402    0.0000 </r>
       <r>   15.3536    0.0000 </r>
       <r>   16.3170    0.0000 </r>
       <r>   20.2656    0.0000 </r>
       <r>   24.1588    0.0000 </r>
      </set>
      <set comment="kpoint 7">
       <r>  -15.8929    1.0000 </r>
       <r>  -15.7897    1.0000 </r>
       <r>   -3.7789    1.0000 </r>
       <r>   -2.7183    1.0000 </r>
       <r>   -1.8552    1.0000 </r>
       <r>   -1.8190    1.0000 </r>
       <r>   -0.8686    1.0000 </r>
       <r>   -0.8348    1.0000 </r>
       <r>    6.7704    0.0000 </r>
       <r>   10.1239    0.0000 </r>
       <r>   12.1450    0.0000 </r>
       <r>   12.5155    0.0000 </r>
       <r>   12.5824    0.0000 </r>
       <r>   14.0620    0.0000 </r>
       <r>   14.7663    0.0000 </r>
       <r>   14.8076    0.0000 </r>
       <r>   15.0812    0.0000 </r>
       <r>   16.6995    0.0000 </r>
       <r>   20.5000    0.0000 </r>
       <r>   23.5214    0.0000 </r>
      </set>
      <set comment="kpoint 8">
       <r>  -15.7259    1.0000 </r>
       <r>  -15.6251    1.0000 </r>
       <r>   -3.5474    1.0000 </r>
       <r>   -2.5045    1.0000 </r>
       <r>   -2.3867    1.0000 </r>
       <r>   -2.3489    1.0000 </r>
       <r>   -1.0955    1.0000 </r>
       <r>   -1.0613    1.0000 </r>
       <r>    7.0376    0.0000 </r>
       <r>   10.0486    0.0000 </r>
       <r>   12.0242    0.0000 </r>
       <r>   12.0281    0.0000 </r>
       <r>   12.5172    0.0000 </r>
       <r>   14.4673    0.0000 </r>
       <r>   14.8268    0.0000 </r>
       <r>   15.4023    0.0000 </r>
       <r>   15.4448    0.0000 </r>
       <r>   17.1100    0.0000 </r>
       <r>   20.7304    0.0000 </r>
       <r>   22.8473    0.0000 </r>
      </set>
      <set comment="kpoint 9">
       <r>  -15.5364    1.0000 </r>
       <r>  -15.4384    1.0000 </r>
       <r>   -3.2833    1.0000 </r>
       <r>   -2.9454    1.0000 </r>
       <r>   -2.9058    1.0000 </r>
       <r>   -2.2619    1.0000 </r>
       <r>   -1.3264    1.0000 </r>
       <r>   -1.2919    1.0000 </r>
       <r>    7.3359    0.0000 </r>
       <r>    9.9077    0.0000 </r>
       <r>   11.4854    0.0000 </r>
       <r>   11.9104    0.0000 </r>
       <r>   12.4538    0.0000 </r>
       <r>   14.6193    0.0000 </r>
       <r>   14.8916    0.0000 </r>
       <r>   16.0957    0.0000 </r>
       <r>   16.1401    0.0000 </r>
       <r>   17.5335    0.0000 </r>
       <r>   20.9324    0.0000 </r>
       <r>   22.1736    0.0000 </r>
      </set>
      <set comment="kpoint 10">
       <r>  -15.3261    1.0000 </r>
       <r>  -15.2312    1.0000 </r>
       <r>   -3.5189    1.0000 </r>
       <r>   -3.4776    1.0000 </r>
       <r>   -2.9883    1.0000 </r>
       <r>   -1.9926    1.0000 </r>
       <r>   -1.5546    1.0000 </r>
       <r>   -1.5198    1.0000 </r>
       <r>    7.6637    0.0000 </r>
       <r>    9.6845    0.0000 </r>
       <r>   10.9109    0.0000 </r>
       <r>   11.7952    0.0000 </r>
       <r>   12.3959    0.0000 </r>
       <r>   14.4830    0.0000 </r>
       <r>   15.3214    0.0000 </r>
       <r>   16.8346    0.0000 </r>
       <r>   16.8820    0.0000 </r>
       <r>   17.9526    0.0000 </r>
       <r>   21.0715    0.0000 </r>
       <r>   21.5241    0.0000 </r>
      </set>
      <set comment="kpoint 11">
       <r>  -15.0972    1.0000 </r>
       <r>  -15.0060    1.0000 </r>
       <r>   -4.0965    1.0000 </r>
       <r>   -4.0531    1.0000 </r>
       <r>   -2.6646    1.0000 </r>
       <r>   -1.7744    1.0000 </r>
       <r>   -1.7393    1.0000 </r>
       <r>   -1.6996    1.0000 </r>
       <r>    8.0186    0.0000 </r>
       <r>    9.3714    0.0000 </r>
       <r>   10.3138    0.0000 </r>
       <r>   11.6851    0.0000 </r>
       <r>   12.3473    0.0000 </r>
       <r>   14.4318    0.0000 </r>
       <r>   15.7415    0.0000 </r>
       <r>   17.6064    0.0000 </r>
       <r>   17.6581    0.0000 </r>
       <r>   18.3433    0.0000 </r>
       <r>   20.9107    0.0000 </r>
       <r>   21.1082    0.0000 </r>
      </set>
      <set comment="kpoint 12">
       <r>  -14.8530    1.0000 </r>
       <r>  -14.7658    1.0000 </r>
       <r>   -4.6680    1.0000 </r>
       <r>   -4.6222    1.0000 </r>
       <r>   -2.3152    1.0000 </r>
       <r>   -1.9812    1.0000 </r>
       <r>   -1.9459    1.0000 </r>
       <r>   -1.3869    1.0000 </r>
       <r>    8.3971    0.0000 </r>
       <r>    8.9725    0.0000 </r>
       <r>    9.7097    0.0000 </r>
       <r>   11.5818    0.0000 </r>
       <r>   12.3130    0.0000 </r>
       <r>   14.4662    0.0000 </r>
       <r>   16.1297    0.0000 </r>
       <r>   18.3984    0.0000 </r>
       <r>   18.4557    0.0000 </r>
       <r>   18.6696    0.0000 </r>
       <r>   20.3392    0.0000 </r>
       <r>   21.0313    0.0000 </r>
      </set>
      <set comment="kpoint 13">
       <r>  -14.5975    1.0000 </r>
       <r>  -14.5149    1.0000 </r>
       <r>   -5.2231    1.0000 </r>
       <r>   -5.1750    1.0000 </r>
       <r>   -2.1711    1.0000 </r>
       <r>   -2.1355    1.0000 </r>
       <r>   -1.9443    1.0000 </r>
       <r>   -1.0602    1.0000 </r>
       <r>    8.5023    0.0000 </r>
       <r>    8.7939    0.0000 </r>
       <r>    9.1158    0.0000 </r>
       <r>   11.4862    0.0000 </r>
       <r>   12.2994    0.0000 </r>
       <r>   14.5764    0.0000 </r>
       <r>   16.4451    0.0000 </r>
       <r>   18.8801    0.0000 </r>
       <r>   19.1933    0.0000 </r>
       <r>   19.2589    0.0000 </r>
       <r>   19.8107    0.0000 </r>
       <r>   20.9151    0.0000 </r>
      </set>
      <set comment="kpoint 14">
       <r>  -14.3364    1.0000 </r>
       <r>  -14.2591    1.0000 </r>
       <r>   -5.7516    1.0000 </r>
       <r>   -5.7010    1.0000 </r>
       <r>   -2.3409    1.0000 </r>
       <r>   -2.3051    1.0000 </r>
       <r>   -1.5577    1.0000 </r>
       <r>   -0.7272    1.0000 </r>
       <r>    7.9844    0.0000 </r>
       <r>    8.5458    0.0000 </r>
       <r>    9.2002    0.0000 </r>
       <r>   11.3986    0.0000 </r>
       <r>   12.3159    0.0000 </r>
       <r>   14.7476    0.0000 </r>
       <r>   16.6181    0.0000 </r>
       <r>   18.9573    0.0000 </r>
       <r>   19.3247    0.0000 </r>
       <r>   19.9738    0.0000 </r>
       <r>   20.0500    0.0000 </r>
       <r>   20.8892    0.0000 </r>
      </set>
      <set comment="kpoint 15">
       <r>  -14.0773    1.0000 </r>
       <r>  -14.0061    1.0000 </r>
       <r>   -6.2418    1.0000 </r>
       <r>   -6.1889    1.0000 </r>
       <r>   -2.4883    1.0000 </r>
       <r>   -2.4523    1.0000 </r>
       <r>   -1.1637    1.0000 </r>
       <r>   -0.3989    1.0000 </r>
       <r>    7.4504    0.0000 </r>
       <r>    8.0100    0.0000 </r>
       <r>    9.6025    0.0000 </r>
       <r>   11.3186    0.0000 </r>
       <r>   12.3759    0.0000 </r>
       <r>   14.9637    0.0000 </r>
       <r>   16.5580    0.0000 </r>
       <r>   18.8791    0.0000 </r>
       <r>   19.0015    0.0000 </r>
       <r>   20.7175    0.0000 </r>
       <r>   20.8141    0.0000 </r>
       <r>   20.9905    0.0000 </r>
      </set>
      <set comment="kpoint 16">
       <r>  -13.8307    1.0000 </r>
       <r>  -13.7663    1.0000 </r>
       <r>   -6.6803    1.0000 </r>
       <r>   -6.6253    1.0000 </r>
       <r>   -2.6112    1.0000 </r>
       <r>   -2.5751    1.0000 </r>
       <r>   -0.7743    1.0000 </r>
       <r>   -0.0907    1.0000 </r>
       <r>    6.9358    0.0000 </r>
       <r>    7.5189    0.0000 </r>
       <r>    9.9802    0.0000 </r>
       <r>   11.2451    0.0000 </r>
       <r>   12.4987    0.0000 </r>
       <r>   15.2086    0.0000 </r>
       <r>   16.2427    0.0000 </r>
       <r>   18.4728    0.0000 </r>
       <r>   19.1255    0.0000 </r>
       <r>   21.1520    0.0000 </r>
       <r>   21.3974    0.0000 </r>
       <r>   21.5044    0.0000 </r>
      </set>
      <set comment="kpoint 17">
       <r>  -13.6102    1.0000 </r>
       <r>  -13.5534    1.0000 </r>
       <r>   -7.0513    1.0000 </r>
       <r>   -6.9946    1.0000 </r>
       <r>   -2.7082    1.0000 </r>
       <r>   -2.6720    1.0000 </r>
       <r>   -0.4073    1.0000 </r>
       <r>    0.1766    1.0000 </r>
       <r>    6.4765    0.0000 </r>
       <r>    7.0900    0.0000 </r>
       <r>   10.3084    0.0000 </r>
       <r>   11.1758    0.0000 </r>
       <r>   12.7064    0.0000 </r>
       <r>   15.4648    0.0000 </r>
       <r>   15.7547    0.0000 </r>
       <r>   18.1085    0.0000 </r>
       <r>   19.3174    0.0000 </r>
       <r>   21.3070    0.0000 </r>
       <r>   21.9818    0.0000 </r>
       <r>   22.1066    0.0000 </r>
      </set>
      <set comment="kpoint 18">
       <r>  -13.4324    1.0000 </r>
       <r>  -13.3831    1.0000 </r>
       <r>   -7.3365    1.0000 </r>
       <r>   -7.2786    1.0000 </r>
       <r>   -2.7783    1.0000 </r>
       <r>   -2.7421    1.0000 </r>
       <r>   -0.0885    1.0000 </r>
       <r>    0.3782    1.0000 </r>
       <r>    6.1095    0.0000 </r>
       <r>    6.7482    0.0000 </r>
       <r>   10.5665    0.0000 </r>
       <r>   11.1077    0.0000 </r>
       <r>   13.0127    0.0000 </r>
       <r>   15.1933    0.0000 </r>
       <r>   15.7089    0.0000 </r>
       <r>   17.7971    0.0000 </r>
       <r>   19.5125    0.0000 </r>
       <r>   21.4222    0.0000 </r>
       <r>   22.4395    0.0000 </r>
       <r>   22.5072    0.0000 </r>
      </set>
      <set comment="kpoint 19">
       <r>  -13.3155    1.0000 </r>
       <r>  -13.2724    1.0000 </r>
       <r>   -7.5176    1.0000 </r>
       <r>   -7.4590    1.0000 </r>
       <r>   -2.8206    1.0000 </r>
       <r>   -2.7843    1.0000 </r>
       <r>    0.1434    1.0000 </r>
       <r>    0.4935    1.0000 </r>
       <r>    5.8702    0.0000 </r>
       <r>    6.5243    0.0000 </r>
       <r>   10.7465    0.0000 </r>
       <r>   11.0391    0.0000 </r>
       <r>   13.3994    0.0000 </r>
       <r>   14.6399    0.0000 </r>
       <r>   15.9008    0.0000 </r>
       <r>   17.5686    0.0000 </r>
       <r>   19.6551    0.0000 </r>
       <r>   21.4886    0.0000 </r>
       <r>   22.4412    0.0000 </r>
       <r>   22.7263    0.0000 </r>
      </set>
      <set comment="kpoint 20">
       <r>  -13.2744    1.0000 </r>
       <r>  -13.2338    1.0000 </r>
       <r>   -7.5799    1.0000 </r>
       <r>   -7.5211    1.0000 </r>
       <r>   -2.8348    1.0000 </r>
       <r>   -2.7985    1.0000 </r>
       <r>    0.2333    1.0000 </r>
       <r>    0.5262    1.0000 </r>
       <r>    5.7869    0.0000 </r>
       <r>    6.4458    0.0000 </r>
       <r>   10.8268    0.0000 </r>
       <r>   10.9950    0.0000 </r>
       <r>   13.6828    0.0000 </r>
       <r>   14.2995    0.0000 </r>
       <r>   15.9780    0.0000 </r>
       <r>   17.4798    0.0000 </r>
       <r>   19.7070    0.0000 </r>
       <r>   21.5095    0.0000 </r>
       <r>   22.4198    0.0000 </r>
       <r>   22.8253    0.0000 </r>
      </set>
      <set comment="kpoint 21">
       <r>  -13.2744    1.0000 </r>
       <r>  -13.2338    1.0000 </r>
       <r>   -7.5799    1.0000 </r>
       <r>   -7.5211    1.0000 </r>
       <r>   -2.8348    1.0000 </r>
       <r>   -2.7985    1.0000 </r>
       <r>    0.2333    1.0000 </r>
       <r>    0.5262    1.0000 </r>
       <r>    5.7869    0.0000 </r>
       <r>    6.4458    0.0000 </r>
       <r>   10.8268    0.0000 </r>
       <r>   10.9950    0.0000 </r>
       <r>   13.6828    0.0000 </r>
       <r>   14.2995    0.0000 </r>
       <r>   15.9780    0.0000 </r>
       <r>   17.4798    0.0000 </r>
       <r>   19.7070    0.0000 </r>
       <r>   21.5095    0.0000 </r>
       <r>   22.4200    0.0000 </r>
       <r>   22.8248    0.0000 </r>
      </set>
      <set comment="kpoint 22">
       <r>  -13.2724    1.0000 </r>
       <r>  -13.2318    1.0000 </r>
       <r>   -7.5763    1.0000 </r>
       <r>   -7.5175    1.0000 </r>
       <r>   -2.8495    1.0000 </r>
       <r>   -2.8131    1.0000 </r>
       <r>    0.2360    1.0000 </r>
       <r>    0.5293    1.0000 </r>
       <r>    5.7891    0.0000 </r>
       <r>    6.4465    0.0000 </r>
       <r>   10.8454    0.0000 </r>
       <r>   11.0163    0.0000 </r>
       <r>   13.6836    0.0000 </r>
       <r>   14.3117    0.0000 </r>
       <r>   15.9669    0.0000 </r>
       <r>   17.4614    0.0000 </r>
       <r>   19.7007    0.0000 </r>
       <r>   21.4988    0.0000 </r>
       <r>   22.2612    0.0000 </r>
       <r>   22.8159    0.0000 </r>
      </set>
      <set comment="kpoint 23">
       <r>  -13.2665    1.0000 </r>
       <r>  -13.2259    1.0000 </r>
       <r>   -7.5657    1.0000 </r>
       <r>   -7.5070    1.0000 </r>
       <r>   -2.8932    1.0000 </r>
       <r>   -2.8567    1.0000 </r>
       <r>    0.2442    1.0000 </r>
       <r>    0.5385    1.0000 </r>
       <r>    5.7957    0.0000 </r>
       <r>    6.4484    0.0000 </r>
       <r>   10.9008    0.0000 </r>
       <r>   11.0800    0.0000 </r>
       <r>   13.6868    0.0000 </r>
       <r>   14.3475    0.0000 </r>
       <r>   15.9337    0.0000 </r>
       <r>   17.4061    0.0000 </r>
       <r>   19.6825    0.0000 </r>
       <r>   21.4669    0.0000 </r>
       <r>   21.9456    0.0000 </r>
       <r>   22.7898    0.0000 </r>
      </set>
      <set comment="kpoint 24">
       <r>  -13.2567    1.0000 </r>
       <r>  -13.2161    1.0000 </r>
       <r>   -7.5479    1.0000 </r>
       <r>   -7.4895    1.0000 </r>
       <r>   -2.9648    1.0000 </r>
       <r>   -2.9280    1.0000 </r>
       <r>    0.2578    1.0000 </r>
       <r>    0.5538    1.0000 </r>
       <r>    5.8065    0.0000 </r>
       <r>    6.4514    0.0000 </r>
       <r>   10.9910    0.0000 </r>
       <r>   11.1845    0.0000 </r>
       <r>   13.6953    0.0000 </r>
       <r>   14.4051    0.0000 </r>
       <r>   15.8787    0.0000 </r>
       <r>   17.3135    0.0000 </r>
       <r>   19.6526    0.0000 </r>
       <r>   21.4155    0.0000 </r>
       <r>   21.6134    0.0000 </r>
       <r>   22.7420    0.0000 </r>
      </set>
      <set comment="kpoint 25">
       <r>  -13.2431    1.0000 </r>
       <r>  -13.2024    1.0000 </r>
       <r>   -7.5232    1.0000 </r>
       <r>   -7.4650    1.0000 </r>
       <r>   -3.0626    1.0000 </r>
       <r>   -3.0254    1.0000 </r>
       <r>    0.2767    1.0000 </r>
       <r>    0.5750    1.0000 </r>
       <r>    5.8213    0.0000 </r>
       <r>    6.4550    0.0000 </r>
       <r>   11.1131    0.0000 </r>
       <r>   11.3277    0.0000 </r>
       <r>   13.7122    0.0000 </r>
       <r>   14.4820    0.0000 </r>
       <r>   15.8025    0.0000 </r>
       <r>   17.1838    0.0000 </r>
       <r>   19.6112    0.0000 </r>
       <r>   21.3068    0.0000 </r>
       <r>   21.3454    0.0000 </r>
       <r>   22.6696    0.0000 </r>
      </set>
      <set comment="kpoint 26">
       <r>  -13.2259    1.0000 </r>
       <r>  -13.1852    1.0000 </r>
       <r>   -7.4916    1.0000 </r>
       <r>   -7.4337    1.0000 </r>
       <r>   -3.1843    1.0000 </r>
       <r>   -3.1466    1.0000 </r>
       <r>    0.3008    1.0000 </r>
       <r>    0.6018    1.0000 </r>
       <r>    5.8395    0.0000 </r>
       <r>    6.4587    0.0000 </r>
       <r>   11.2629    0.0000 </r>
       <r>   11.5068    0.0000 </r>
       <r>   13.7412    0.0000 </r>
       <r>   14.5760    0.0000 </r>
       <r>   15.7060    0.0000 </r>
       <r>   17.0183    0.0000 </r>
       <r>   19.5582    0.0000 </r>
       <r>   21.0380    0.0000 </r>
       <r>   21.2586    0.0000 </r>
       <r>   22.5672    0.0000 </r>
      </set>
      <set comment="kpoint 27">
       <r>  -13.2052    1.0000 </r>
       <r>  -13.1644    1.0000 </r>
       <r>   -7.4531    1.0000 </r>
       <r>   -7.3957    1.0000 </r>
       <r>   -3.3273    1.0000 </r>
       <r>   -3.2890    1.0000 </r>
       <r>    0.3300    1.0000 </r>
       <r>    0.6339    1.0000 </r>
       <r>    5.8608    0.0000 </r>
       <r>    6.4619    0.0000 </r>
       <r>   11.4349    0.0000 </r>
       <r>   11.7180    0.0000 </r>
       <r>   13.7865    0.0000 </r>
       <r>   14.6857    0.0000 </r>
       <r>   15.5910    0.0000 </r>
       <r>   16.8209    0.0000 </r>
       <r>   19.4955    0.0000 </r>
       <r>   20.8116    0.0000 </r>
       <r>   21.1577    0.0000 </r>
       <r>   22.4381    0.0000 </r>
      </set>
      <set comment="kpoint 28">
       <r>  -13.1813    1.0000 </r>
       <r>  -13.1405    1.0000 </r>
       <r>   -7.4081    1.0000 </r>
       <r>   -7.3511    1.0000 </r>
       <r>   -3.4886    1.0000 </r>
       <r>   -3.4496    1.0000 </r>
       <r>    0.3642    1.0000 </r>
       <r>    0.6711    1.0000 </r>
       <r>    5.8845    0.0000 </r>
       <r>    6.4638    0.0000 </r>
       <r>   11.6225    0.0000 </r>
       <r>   11.9572    0.0000 </r>
       <r>   13.8519    0.0000 </r>
       <r>   14.8101    0.0000 </r>
       <r>   15.4594    0.0000 </r>
       <r>   16.5971    0.0000 </r>
       <r>   19.4227    0.0000 </r>
       <r>   20.6274    0.0000 </r>
       <r>   21.0446    0.0000 </r>
       <r>   22.2785    0.0000 </r>
      </set>
      <set comment="kpoint 29">
       <r>  -13.1543    1.0000 </r>
       <r>  -13.1135    1.0000 </r>
       <r>   -7.3566    1.0000 </r>
       <r>   -7.3003    1.0000 </r>
       <r>   -3.6651    1.0000 </r>
       <r>   -3.6253    1.0000 </r>
       <r>    0.4031    1.0000 </r>
       <r>    0.7127    1.0000 </r>
       <r>    5.9099    0.0000 </r>
       <r>    6.4635    0.0000 </r>
       <r>   11.8184    0.0000 </r>
       <r>   12.2198    0.0000 </r>
       <r>   13.9414    0.0000 </r>
       <r>   14.9484    0.0000 </r>
       <r>   15.3142    0.0000 </r>
       <r>   16.3546    0.0000 </r>
       <r>   19.3400    0.0000 </r>
       <r>   20.4825    0.0000 </r>
       <r>   20.9222    0.0000 </r>
       <r>   22.0897    0.0000 </r>
      </set>
      <set comment="kpoint 30">
       <r>  -13.1247    1.0000 </r>
       <r>  -13.0840    1.0000 </r>
       <r>   -7.2990    1.0000 </r>
       <r>   -7.2434    1.0000 </r>
       <r>   -3.8535    1.0000 </r>
       <r>   -3.8129    1.0000 </r>
       <r>    0.4464    1.0000 </r>
       <r>    0.7584    1.0000 </r>
       <r>    5.9360    0.0000 </r>
       <r>    6.4599    0.0000 </r>
       <r>   12.0147    0.0000 </r>
       <r>   12.5005    0.0000 </r>
       <r>   14.0586    0.0000 </r>
       <r>   15.1007    0.0000 </r>
       <r>   15.1585    0.0000 </r>
       <r>   16.1016    0.0000 </r>
       <r>   19.2473    0.0000 </r>
       <r>   20.3727    0.0000 </r>
       <r>   20.7928    0.0000 </r>
       <r>   21.8719    0.0000 </r>
      </set>
      <set comment="kpoint 31">
       <r>  -13.0928    1.0000 </r>
       <r>  -13.0522    1.0000 </r>
       <r>   -7.2357    1.0000 </r>
       <r>   -7.1808    1.0000 </r>
       <r>   -4.0506    1.0000 </r>
       <r>   -4.0092    1.0000 </r>
       <r>    0.4937    1.0000 </r>
       <r>    0.8073    1.0000 </r>
       <r>    5.9621    0.0000 </r>
       <r>    6.4522    0.0000 </r>
       <r>   12.2042    0.0000 </r>
       <r>   12.7934    0.0000 </r>
       <r>   14.2058    0.0000 </r>
       <r>   14.9962    0.0000 </r>
       <r>   15.2674    0.0000 </r>
       <r>   15.8462    0.0000 </r>
       <r>   19.1445    0.0000 </r>
       <r>   20.2929    0.0000 </r>
       <r>   20.6595    0.0000 </r>
       <r>   21.6282    0.0000 </r>
      </set>
      <set comment="kpoint 32">
       <r>  -13.0591    1.0000 </r>
       <r>  -13.0186    1.0000 </r>
       <r>   -7.1671    1.0000 </r>
       <r>   -7.1133    1.0000 </r>
       <r>   -4.2530    1.0000 </r>
       <r>   -4.2109    1.0000 </r>
       <r>    0.5446    1.0000 </r>
       <r>    0.8588    1.0000 </r>
       <r>    5.9871    0.0000 </r>
       <r>    6.4394    0.0000 </r>
       <r>   12.3811    0.0000 </r>
       <r>   13.0918    0.0000 </r>
       <r>   14.3824    0.0000 </r>
       <r>   14.8317    0.0000 </r>
       <r>   15.4494    0.0000 </r>
       <r>   15.5962    0.0000 </r>
       <r>   19.0318    0.0000 </r>
       <r>   20.2385    0.0000 </r>
       <r>   20.5250    0.0000 </r>
       <r>   21.3649    0.0000 </r>
      </set>
      <set comment="kpoint 33">
       <r>  -13.0242    1.0000 </r>
       <r>  -12.9839    1.0000 </r>
       <r>   -7.0941    1.0000 </r>
       <r>   -7.0414    1.0000 </r>
       <r>   -4.4574    1.0000 </r>
       <r>   -4.4146    1.0000 </r>
       <r>    0.5984    1.0000 </r>
       <r>    0.9118    1.0000 </r>
       <r>    6.0101    0.0000 </r>
       <r>    6.4206    0.0000 </r>
       <r>   12.5428    0.0000 </r>
       <r>   13.3879    0.0000 </r>
       <r>   14.5837    0.0000 </r>
       <r>   14.6692    0.0000 </r>
       <r>   15.3581    0.0000 </r>
       <r>   15.6482    0.0000 </r>
       <r>   18.9093    0.0000 </r>
       <r>   20.2052    0.0000 </r>
       <r>   20.3914    0.0000 </r>
       <r>   21.0908    0.0000 </r>
      </set>
      <set comment="kpoint 34">
       <r>  -12.9886    1.0000 </r>
       <r>  -12.9486    1.0000 </r>
       <r>   -7.0177    1.0000 </r>
       <r>   -6.9663    1.0000 </r>
       <r>   -4.6599    1.0000 </r>
       <r>   -4.6167    1.0000 </r>
       <r>    0.6545    1.0000 </r>
       <r>    0.9655    1.0000 </r>
       <r>    6.0299    0.0000 </r>
       <r>    6.3953    0.0000 </r>
       <r>   12.6892    0.0000 </r>
       <r>   13.6730    0.0000 </r>
       <r>   14.5136    0.0000 </r>
       <r>   14.8008    0.0000 </r>
       <r>   15.1375    0.0000 </r>
       <r>   15.8648    0.0000 </r>
       <r>   18.7788    0.0000 </r>
       <r>   20.1894    0.0000 </r>
       <r>   20.2592    0.0000 </r>
       <r>   20.8190    0.0000 </r>
      </set>
      <set comment="kpoint 35">
       <r>  -12.9530    1.0000 </r>
       <r>  -12.9134    1.0000 </r>
       <r>   -6.9395    1.0000 </r>
       <r>   -6.8898    1.0000 </r>
       <r>   -4.8567    1.0000 </r>
       <r>   -4.8132    1.0000 </r>
       <r>    0.7120    1.0000 </r>
       <r>    1.0184    1.0000 </r>
       <r>    6.0458    0.0000 </r>
       <r>    6.3634    0.0000 </r>
       <r>   12.8222    0.0000 </r>
       <r>   13.9374    0.0000 </r>
       <r>   14.3692    0.0000 </r>
       <r>   14.9386    0.0000 </r>
       <r>   15.0213    0.0000 </r>
       <r>   16.0994    0.0000 </r>
       <r>   18.6437    0.0000 </r>
       <r>   20.1234    0.0000 </r>
       <r>   20.1878    0.0000 </r>
       <r>   20.5677    0.0000 </r>
      </set>
      <set comment="kpoint 36">
       <r>  -12.9184    1.0000 </r>
       <r>  -12.8792    1.0000 </r>
       <r>   -6.8618    1.0000 </r>
       <r>   -6.8141    1.0000 </r>
       <r>   -5.0429    1.0000 </r>
       <r>   -4.9995    1.0000 </r>
       <r>    0.7699    1.0000 </r>
       <r>    1.0692    1.0000 </r>
       <r>    6.0569    0.0000 </r>
       <r>    6.3253    0.0000 </r>
       <r>   12.9445    0.0000 </r>
       <r>   14.1710    0.0000 </r>
       <r>   14.2404    0.0000 </r>
       <r>   14.7651    0.0000 </r>
       <r>   15.2298    0.0000 </r>
       <r>   16.3492    0.0000 </r>
       <r>   18.5117    0.0000 </r>
       <r>   19.9737    0.0000 </r>
       <r>   20.1974    0.0000 </r>
       <r>   20.3618    0.0000 </r>
      </set>
      <set comment="kpoint 37">
       <r>  -12.8854    1.0000 </r>
       <r>  -12.8468    1.0000 </r>
       <r>   -6.7884    1.0000 </r>
       <r>   -6.7433    1.0000 </r>
       <r>   -5.2124    1.0000 </r>
       <r>   -5.1697    1.0000 </r>
       <r>    0.8268    1.0000 </r>
       <r>    1.1164    1.0000 </r>
       <r>    6.0624    0.0000 </r>
       <r>    6.2826    0.0000 </r>
       <r>   13.0590    0.0000 </r>
       <r>   14.1310    0.0000 </r>
       <r>   14.3635    0.0000 </r>
       <r>   14.6193    0.0000 </r>
       <r>   15.4098    0.0000 </r>
       <r>   16.6055    0.0000 </r>
       <r>   18.3937    0.0000 </r>
       <r>   19.8078    0.0000 </r>
       <r>   20.2153    0.0000 </r>
       <r>   20.2175    0.0000 </r>
      </set>
      <set comment="kpoint 38">
       <r>  -12.8553    1.0000 </r>
       <r>  -12.8173    1.0000 </r>
       <r>   -6.7249    1.0000 </r>
       <r>   -6.6828    1.0000 </r>
       <r>   -5.3575    1.0000 </r>
       <r>   -5.3161    1.0000 </r>
       <r>    0.8813    1.0000 </r>
       <r>    1.1580    1.0000 </r>
       <r>    6.0611    0.0000 </r>
       <r>    6.2378    0.0000 </r>
       <r>   13.1678    0.0000 </r>
       <r>   14.0439    0.0000 </r>
       <r>   14.5030    0.0000 </r>
       <r>   14.5054    0.0000 </r>
       <r>   15.5454    0.0000 </r>
       <r>   16.8510    0.0000 </r>
       <r>   18.3043    0.0000 </r>
       <r>   19.6512    0.0000 </r>
       <r>   20.1234    0.0000 </r>
       <r>   20.2388    0.0000 </r>
      </set>
      <set comment="kpoint 39">
       <r>  -12.8290    1.0000 </r>
       <r>  -12.7917    1.0000 </r>
       <r>   -6.6795    1.0000 </r>
       <r>   -6.6403    1.0000 </r>
       <r>   -5.4684    1.0000 </r>
       <r>   -5.4286    1.0000 </r>
       <r>    0.9316    1.0000 </r>
       <r>    1.1923    1.0000 </r>
       <r>    6.0514    0.0000 </r>
       <r>    6.1956    0.0000 </r>
       <r>   13.2721    0.0000 </r>
       <r>   13.9814    0.0000 </r>
       <r>   14.4171    0.0000 </r>
       <r>   14.5888    0.0000 </r>
       <r>   15.6253    0.0000 </r>
       <r>   17.0553    0.0000 </r>
       <r>   18.2638    0.0000 </r>
       <r>   19.5383    0.0000 </r>
       <r>   20.0585    0.0000 </r>
       <r>   20.2648    0.0000 </r>
      </set>
      <set comment="kpoint 40">
       <r>  -12.8078    1.0000 </r>
       <r>  -12.7712    1.0000 </r>
       <r>   -6.6613    1.0000 </r>
       <r>   -6.6236    1.0000 </r>
       <r>   -5.5351    1.0000 </r>
       <r>   -5.4962    1.0000 </r>
       <r>    0.9755    1.0000 </r>
       <r>    1.2171    1.0000 </r>
       <r>    6.0312    0.0000 </r>
       <r>    6.1621    0.0000 </r>
       <r>   13.3721    0.0000 </r>
       <r>   13.9450    0.0000 </r>
       <r>   14.3620    0.0000 </r>
       <r>   14.6070    0.0000 </r>
       <r>   15.6481    0.0000 </r>
       <r>   17.1747    0.0000 </r>
       <r>   18.2954    0.0000 </r>
       <r>   19.4914    0.0000 </r>
       <r>   20.0082    0.0000 </r>
       <r>   20.2901    0.0000 </r>
      </set>
      <set comment="kpoint 41">
       <r>  -12.8078    1.0000 </r>
       <r>  -12.7712    1.0000 </r>
       <r>   -6.6613    1.0000 </r>
       <r>   -6.6236    1.0000 </r>
       <r>   -5.5351    1.0000 </r>
       <r>   -5.4962    1.0000 </r>
       <r>    0.9755    1.0000 </r>
       <r>    1.2171    1.0000 </r>
       <r>    6.0312    0.0000 </r>
       <r>    6.1621    0.0000 </r>
       <r>   13.3721    0.0000 </r>
       <r>   13.9450    0.0000 </r>
       <r>   14.3620    0.0000 </r>
       <r>   14.6070    0.0000 </r>
       <r>   15.6481    0.0000 </r>
       <r>   17.1747    0.0000 </r>
       <r>   18.2954    0.0000 </r>
       <r>   19.4914    0.0000 </r>
       <r>   20.0082    0.0000 </r>
       <r>   20.2901    0.0000 </r>
      </set>
      <set comment="kpoint 42">
       <r>  -12.9447    1.0000 </r>
       <r>  -12.9028    1.0000 </r>
       <r>   -6.6341    1.0000 </r>
       <r>   -6.5965    1.0000 </r>
       <r>   -5.2622    1.0000 </r>
       <r>   -5.2230    1.0000 </r>
       <r>    0.6953    1.0000 </r>
       <r>    1.0588    1.0000 </r>
       <r>    6.2293    0.0000 </r>
       <r>    6.3684    0.0000 </r>
       <r>   12.7597    0.0000 </r>
       <r>   14.0967    0.0000 </r>
       <r>   14.6534    0.0000 </r>
       <r>   14.6771    0.0000 </r>
       <r>   15.6280    0.0000 </r>
       <r>   16.7661    0.0000 </r>
       <r>   17.8612    0.0000 </r>
       <r>   19.6153    0.0000 </r>
       <r>   20.1366    0.0000 </r>
       <r>   20.2523    0.0000 </r>
      </set>
      <set comment="kpoint 43">
       <r>  -13.1320    1.0000 </r>
       <r>  -13.0834    1.0000 </r>
       <r>   -6.5219    1.0000 </r>
       <r>   -6.4856    1.0000 </r>
       <r>   -4.9580    1.0000 </r>
       <r>   -4.9193    1.0000 </r>
       <r>    0.3468    1.0000 </r>
       <r>    0.8261    1.0000 </r>
       <r>    6.5092    0.0000 </r>
       <r>    6.6590    0.0000 </r>
       <r>   12.1238    0.0000 </r>
       <r>   14.2529    0.0000 </r>
       <r>   14.6945    0.0000 </r>
       <r>   15.0452    0.0000 </r>
       <r>   15.5150    0.0000 </r>
       <r>   16.3257    0.0000 </r>
       <r>   17.4624    0.0000 </r>
       <r>   19.8488    0.0000 </r>
       <r>   20.0025    0.0000 </r>
       <r>   20.4415    0.0000 </r>
      </set>
      <set comment="kpoint 44">
       <r>  -13.3603    1.0000 </r>
       <r>  -13.3046    1.0000 </r>
       <r>   -6.3267    1.0000 </r>
       <r>   -6.2916    1.0000 </r>
       <r>   -4.6307    1.0000 </r>
       <r>   -4.5930    1.0000 </r>
       <r>   -0.0482    1.0000 </r>
       <r>    0.5348    1.0000 </r>
       <r>    6.8559    0.0000 </r>
       <r>    7.0267    0.0000 </r>
       <r>   11.4909    0.0000 </r>
       <r>   14.3851    0.0000 </r>
       <r>   14.6585    0.0000 </r>
       <r>   15.3088    0.0000 </r>
       <r>   15.5262    0.0000 </r>
       <r>   15.8807    0.0000 </r>
       <r>   17.1175    0.0000 </r>
       <r>   19.9439    0.0000 </r>
       <r>   20.1503    0.0000 </r>
       <r>   20.5700    0.0000 </r>
      </set>
      <set comment="kpoint 45">
       <r>  -13.6183    1.0000 </r>
       <r>  -13.5556    1.0000 </r>
       <r>   -6.0569    1.0000 </r>
       <r>   -6.0228    1.0000 </r>
       <r>   -4.2851    1.0000 </r>
       <r>   -4.2485    1.0000 </r>
       <r>   -0.4698    1.0000 </r>
       <r>    0.2028    1.0000 </r>
       <r>    7.2516    0.0000 </r>
       <r>    7.4601    0.0000 </r>
       <r>   10.8755    0.0000 </r>
       <r>   14.4700    0.0000 </r>
       <r>   14.5686    0.0000 </r>
       <r>   15.0308    0.0000 </r>
       <r>   15.4504    0.0000 </r>
       <r>   16.0859    0.0000 </r>
       <r>   16.8253    0.0000 </r>
       <r>   20.0053    0.0000 </r>
       <r>   20.3312    0.0000 </r>
       <r>   20.7335    0.0000 </r>
      </set>
      <set comment="kpoint 46">
       <r>  -13.8941    1.0000 </r>
       <r>  -13.8248    1.0000 </r>
       <r>   -5.7231    1.0000 </r>
       <r>   -5.6896    1.0000 </r>
       <r>   -3.9250    1.0000 </r>
       <r>   -3.8893    1.0000 </r>
       <r>   -0.9019    1.0000 </r>
       <r>   -0.1528    1.0000 </r>
       <r>    7.6792    0.0000 </r>
       <r>    7.9473    0.0000 </r>
       <r>   10.2859    0.0000 </r>
       <r>   14.4237    0.0000 </r>
       <r>   14.4978    0.0000 </r>
       <r>   14.7148    0.0000 </r>
       <r>   15.0534    0.0000 </r>
       <r>   16.5722    0.0000 </r>
       <r>   16.7150    0.0000 </r>
       <r>   20.1739    0.0000 </r>
       <r>   20.2121    0.0000 </r>
       <r>   21.0738    0.0000 </r>
      </set>
      <set comment="kpoint 47">
       <r>  -14.1778    1.0000 </r>
       <r>  -14.1025    1.0000 </r>
       <r>   -5.3357    1.0000 </r>
       <r>   -5.3025    1.0000 </r>
       <r>   -3.5538    1.0000 </r>
       <r>   -3.5190    1.0000 </r>
       <r>   -1.3319    1.0000 </r>
       <r>   -0.5182    1.0000 </r>
       <r>    8.1213    0.0000 </r>
       <r>    8.4764    0.0000 </r>
       <r>    9.7269    0.0000 </r>
       <r>   14.2135    0.0000 </r>
       <r>   14.3943    0.0000 </r>
       <r>   14.4765    0.0000 </r>
       <r>   14.7101    0.0000 </r>
       <r>   16.3414    0.0000 </r>
       <r>   17.4058    0.0000 </r>
       <r>   19.8198    0.0000 </r>
       <r>   20.5683    0.0000 </r>
       <r>   21.3988    0.0000 </r>
      </set>
      <set comment="kpoint 48">
       <r>  -14.4608    1.0000 </r>
       <r>  -14.3801    1.0000 </r>
       <r>   -4.9043    1.0000 </r>
       <r>   -4.8712    1.0000 </r>
       <r>   -3.1754    1.0000 </r>
       <r>   -3.1413    1.0000 </r>
       <r>   -1.7505    1.0000 </r>
       <r>   -0.8821    1.0000 </r>
       <r>    8.5596    0.0000 </r>
       <r>    9.0364    0.0000 </r>
       <r>    9.2019    0.0000 </r>
       <r>   13.9429    0.0000 </r>
       <r>   14.0875    0.0000 </r>
       <r>   14.4298    0.0000 </r>
       <r>   14.4332    0.0000 </r>
       <r>   16.1194    0.0000 </r>
       <r>   18.1512    0.0000 </r>
       <r>   19.3391    0.0000 </r>
       <r>   21.0612    0.0000 </r>
       <r>   21.1252    0.0000 </r>
      </set>
      <set comment="kpoint 49">
       <r>  -14.7364    1.0000 </r>
       <r>  -14.6508    1.0000 </r>
       <r>   -4.4378    1.0000 </r>
       <r>   -4.4047    1.0000 </r>
       <r>   -2.7940    1.0000 </r>
       <r>   -2.7606    1.0000 </r>
       <r>   -2.1506    1.0000 </r>
       <r>   -1.2361    1.0000 </r>
       <r>    8.7129    0.0000 </r>
       <r>    8.9742    0.0000 </r>
       <r>    9.6162    0.0000 </r>
       <r>   13.6547    0.0000 </r>
       <r>   13.7958    0.0000 </r>
       <r>   14.2051    0.0000 </r>
       <r>   14.3884    0.0000 </r>
       <r>   15.8956    0.0000 </r>
       <r>   18.7624    0.0000 </r>
       <r>   18.9439    0.0000 </r>
       <r>   20.4958    0.0000 </r>
       <r>   21.6713    0.0000 </r>
      </set>
      <set comment="kpoint 50">
       <r>  -14.9992    1.0000 </r>
       <r>  -14.9093    1.0000 </r>
       <r>   -3.9447    1.0000 </r>
       <r>   -3.9114    1.0000 </r>
       <r>   -2.5269    1.0000 </r>
       <r>   -2.4145    1.0000 </r>
       <r>   -2.3815    1.0000 </r>
       <r>   -1.5734    1.0000 </r>
       <r>    8.2613    0.0000 </r>
       <r>    9.3443    0.0000 </r>
       <r>   10.2055    0.0000 </r>
       <r>   13.3835    0.0000 </r>
       <r>   13.5288    0.0000 </r>
       <r>   14.0012    0.0000 </r>
       <r>   14.3831    0.0000 </r>
       <r>   15.6623    0.0000 </r>
       <r>   18.1117    0.0000 </r>
       <r>   19.7743    0.0000 </r>
       <r>   19.7762    0.0000 </r>
       <r>   21.5845    0.0000 </r>
      </set>
      <set comment="kpoint 51">
       <r>  -15.2454    1.0000 </r>
       <r>  -15.1516    1.0000 </r>
       <r>   -3.4334    1.0000 </r>
       <r>   -3.3999    1.0000 </r>
       <r>   -2.8755    1.0000 </r>
       <r>   -2.0423    1.0000 </r>
       <r>   -2.0096    1.0000 </r>
       <r>   -1.8890    1.0000 </r>
       <r>    7.8480    0.0000 </r>
       <r>    9.6502    0.0000 </r>
       <r>   10.7924    0.0000 </r>
       <r>   13.1438    0.0000 </r>
       <r>   13.2968    0.0000 </r>
       <r>   13.8105    0.0000 </r>
       <r>   14.4388    0.0000 </r>
       <r>   15.4110    0.0000 </r>
       <r>   17.4092    0.0000 </r>
       <r>   19.0238    0.0000 </r>
       <r>   20.6378    0.0000 </r>
       <r>   21.3809    0.0000 </r>
      </set>
      <set comment="kpoint 52">
       <r>  -15.4717    1.0000 </r>
       <r>  -15.3745    1.0000 </r>
       <r>   -3.1932    1.0000 </r>
       <r>   -2.9129    1.0000 </r>
       <r>   -2.8793    1.0000 </r>
       <r>   -2.1789    1.0000 </r>
       <r>   -1.6834    1.0000 </r>
       <r>   -1.6509    1.0000 </r>
       <r>    7.4733    0.0000 </r>
       <r>    9.8795    0.0000 </r>
       <r>   11.3657    0.0000 </r>
       <r>   12.9419    0.0000 </r>
       <r>   13.1063    0.0000 </r>
       <r>   13.6313    0.0000 </r>
       <r>   14.5684    0.0000 </r>
       <r>   15.1337    0.0000 </r>
       <r>   16.6783    0.0000 </r>
       <r>   18.2884    0.0000 </r>
       <r>   21.1273    0.0000 </r>
       <r>   21.5151    0.0000 </r>
      </set>
      <set comment="kpoint 53">
       <r>  -15.6757    1.0000 </r>
       <r>  -15.5756    1.0000 </r>
       <r>   -3.4778    1.0000 </r>
       <r>   -2.4402    1.0000 </r>
       <r>   -2.3932    1.0000 </r>
       <r>   -2.3597    1.0000 </r>
       <r>   -1.3443    1.0000 </r>
       <r>   -1.3119    1.0000 </r>
       <r>    7.1375    0.0000 </r>
       <r>   10.0311    0.0000 </r>
       <r>   11.9124    0.0000 </r>
       <r>   12.7800    0.0000 </r>
       <r>   12.9594    0.0000 </r>
       <r>   13.4643    0.0000 </r>
       <r>   14.7692    0.0000 </r>
       <r>   14.8229    0.0000 </r>
       <r>   15.9433    0.0000 </r>
       <r>   17.6014    0.0000 </r>
       <r>   20.8548    0.0000 </r>
       <r>   22.3875    0.0000 </r>
      </set>
      <set comment="kpoint 54">
       <r>  -15.8556    1.0000 </r>
       <r>  -15.7529    1.0000 </r>
       <r>   -3.7273    1.0000 </r>
       <r>   -2.6705    1.0000 </r>
       <r>   -1.8863    1.0000 </r>
       <r>   -1.8530    1.0000 </r>
       <r>   -1.0318    1.0000 </r>
       <r>   -0.9995    1.0000 </r>
       <r>    6.8409    0.0000 </r>
       <r>   10.1162    0.0000 </r>
       <r>   12.4199    0.0000 </r>
       <r>   12.6580    0.0000 </r>
       <r>   12.8571    0.0000 </r>
       <r>   13.3118    0.0000 </r>
       <r>   14.4754    0.0000 </r>
       <r>   15.0230    0.0000 </r>
       <r>   15.2293    0.0000 </r>
       <r>   16.9906    0.0000 </r>
       <r>   20.5815    0.0000 </r>
       <r>   23.2247    0.0000 </r>
      </set>
      <set comment="kpoint 55">
       <r>  -16.0098    1.0000 </r>
       <r>  -15.9049    1.0000 </r>
       <r>   -3.9405    1.0000 </r>
       <r>   -2.8679    1.0000 </r>
       <r>   -1.4061    1.0000 </r>
       <r>   -1.3733    1.0000 </r>
       <r>   -0.7528    1.0000 </r>
       <r>   -0.7205    1.0000 </r>
       <r>    6.5839    0.0000 </r>
       <r>   10.1519    0.0000 </r>
       <r>   12.5737    0.0000 </r>
       <r>   12.7969    0.0000 </r>
       <r>   12.8752    0.0000 </r>
       <r>   13.1750    0.0000 </r>
       <r>   14.0986    0.0000 </r>
       <r>   14.5605    0.0000 </r>
       <r>   15.3024    0.0000 </r>
       <r>   16.4733    0.0000 </r>
       <r>   20.3199    0.0000 </r>
       <r>   23.9841    0.0000 </r>
      </set>
      <set comment="kpoint 56">
       <r>  -16.1374    1.0000 </r>
       <r>  -16.0307    1.0000 </r>
       <r>   -4.1162    1.0000 </r>
       <r>   -3.0312    1.0000 </r>
       <r>   -0.9698    1.0000 </r>
       <r>   -0.9376    1.0000 </r>
       <r>   -0.5139    1.0000 </r>
       <r>   -0.4816    1.0000 </r>
       <r>    6.3672    0.0000 </r>
       <r>   10.1567    0.0000 </r>
       <r>   12.5223    0.0000 </r>
       <r>   12.7734    0.0000 </r>
       <r>   13.0553    0.0000 </r>
       <r>   13.2659    0.0000 </r>
       <r>   13.7154    0.0000 </r>
       <r>   13.9628    0.0000 </r>
       <r>   15.5777    0.0000 </r>
       <r>   16.0538    0.0000 </r>
       <r>   20.0809    0.0000 </r>
       <r>   24.6177    0.0000 </r>
      </set>
      <set comment="kpoint 57">
       <r>  -16.2374    1.0000 </r>
       <r>  -16.1293    1.0000 </r>
       <r>   -4.2536    1.0000 </r>
       <r>   -3.1592    1.0000 </r>
       <r>   -0.5971    1.0000 </r>
       <r>   -0.5653    1.0000 </r>
       <r>   -0.3211    1.0000 </r>
       <r>   -0.2889    1.0000 </r>
       <r>    6.1927    0.0000 </r>
       <r>   10.1460    0.0000 </r>
       <r>   12.4966    0.0000 </r>
       <r>   12.7777    0.0000 </r>
       <r>   12.9543    0.0000 </r>
       <r>   13.3608    0.0000 </r>
       <r>   13.4638    0.0000 </r>
       <r>   13.5814    0.0000 </r>
       <r>   15.7280    0.0000 </r>
       <r>   15.8219    0.0000 </r>
       <r>   19.8765    0.0000 </r>
       <r>   25.0921    0.0000 </r>
      </set>
      <set comment="kpoint 58">
       <r>  -16.3092    1.0000 </r>
       <r>  -16.2001    1.0000 </r>
       <r>   -4.3522    1.0000 </r>
       <r>   -3.2511    1.0000 </r>
       <r>   -0.3095    1.0000 </r>
       <r>   -0.2777    1.0000 </r>
       <r>   -0.1796    1.0000 </r>
       <r>   -0.1474    1.0000 </r>
       <r>    6.0635    0.0000 </r>
       <r>   10.1307    0.0000 </r>
       <r>   12.4854    0.0000 </r>
       <r>   12.7971    0.0000 </r>
       <r>   12.8746    0.0000 </r>
       <r>   13.0680    0.0000 </r>
       <r>   13.0975    0.0000 </r>
       <r>   13.8130    0.0000 </r>
       <r>   15.4918    0.0000 </r>
       <r>   16.0124    0.0000 </r>
       <r>   19.7187    0.0000 </r>
       <r>   25.4051    0.0000 </r>
      </set>
      <set comment="kpoint 59">
       <r>  -16.3524    1.0000 </r>
       <r>  -16.2427    1.0000 </r>
       <r>   -4.4115    1.0000 </r>
       <r>   -3.3064    1.0000 </r>
       <r>   -0.1267    1.0000 </r>
       <r>   -0.0952    1.0000 </r>
       <r>   -0.0926    1.0000 </r>
       <r>   -0.0608    1.0000 </r>
       <r>    5.9836    0.0000 </r>
       <r>   10.1189    0.0000 </r>
       <r>   12.4749    0.0000 </r>
       <r>   12.8074    0.0000 </r>
       <r>   12.8306    0.0000 </r>
       <r>   12.8613    0.0000 </r>
       <r>   12.8977    0.0000 </r>
       <r>   13.9545    0.0000 </r>
       <r>   15.3466    0.0000 </r>
       <r>   16.1334    0.0000 </r>
       <r>   19.6186    0.0000 </r>
       <r>   25.5780    0.0000 </r>
      </set>
      <set comment="kpoint 60">
       <r>  -16.3669    1.0000 </r>
       <r>  -16.2569    1.0000 </r>
       <r>   -4.4312    1.0000 </r>
       <r>   -3.3249    1.0000 </r>
       <r>   -0.0640    1.0000 </r>
       <r>   -0.0640    1.0000 </r>
       <r>   -0.0317    1.0000 </r>
       <r>   -0.0317    1.0000 </r>
       <r>    5.9564    0.0000 </r>
       <r>   10.1146    0.0000 </r>
       <r>   12.4665    0.0000 </r>
       <r>   12.7936    0.0000 </r>
       <r>   12.7936    0.0000 </r>
       <r>   12.8328    0.0000 </r>
       <r>   12.8329    0.0000 </r>
       <r>   14.0020    0.0000 </r>
       <r>   15.2973    0.0000 </r>
       <r>   16.1751    0.0000 </r>
       <r>   19.5843    0.0000 </r>
       <r>   25.6325    0.0000 </r>
      </set>
      <set comment="kpoint 61">
       <r>  -16.3669    1.0000 </r>
       <r>  -16.2569    1.0000 </r>
       <r>   -4.4312    1.0000 </r>
       <r>   -3.3249    1.0000 </r>
       <r>   -0.0640    1.0000 </r>
[...]
        <r>  0.0000  0.0000  0.0042  0.0000  0.0000  0.0000  0.0000  0.0000  0.0000 </r>
       </set>
       <set comment="band 14">
        <r>  0.0000  0.0000  0.0024  0.0000  0.0000  0.0000  0.0000  0.0000  0.0000 </r>
        <r>  0.0046  0.4489  0.0000  0.0154  0.0000  0.0000  0.0000  0.0000  0.0000 </r>
        <r>  0.0000  0.0000  0.0059  0.0000  0.0000  0.0000  0.0000  0.0000  0.0000 </r>
        <r>  0.0033  0.1101  0.0000  0.0014  0.0000  0.0000  0.0000  0.0000  0.0000 </r>
       </set>
       <set comment="band 15">
        <r>  0.0000  0.0000  0.1756  0.0000  0.0000  0.0000  0.0000  0.0000  0.0000 </r>
        <r>  0.0668  0.0134  0.0000  0.0032  0.0000  0.0000  0.0000  0.0000  0.0000 </r>
        <r>  0.0000  0.0000  0.2978  0.0000  0.0000  0.0000  0.0000  0.0000  0.0000 </r>
        <r>  0.0951  0.0015  0.0000  0.0153  0.0000  0.0000  0.0000  0.0000  0.0000 </r>
       </set>
       <set comment="band 16">
        <r>  0.0706  0.0115  0.0000  0.0081  0.0000  0.0000  0.0000  0.0000  0.0000 </r>
        <r>  0.0000  0.0000  0.1694  0.0000  0.0000  0.0000  0.0000  0.0000  0.0000 </r>
        <r>  0.0959  0.0009  0.0000  0.0193  0.0000  0.0000  0.0000  0.0000  0.0000 </r>
        <r>  0.0000  0.0000  0.2921  0.0000  0.0000  0.0000  0.0000  0.0000  0.0000 </r>
       </set>
       <set comment="band 17">
        <r>  0.0000  0.0000  0.1940  0.0000  0.0000  0.0000  0.0000  0.0000  0.0000 </r>
        <r>  0.2161  0.0008  0.0000  0.0005  0.0000  0.0000  0.0000  0.0000  0.0000 </r>
        <r>  0.0000  0.0000  0.0573  0.0000  0.0000  0.0000  0.0000  0.0000  0.0000 </r>
        <r>  0.1464  0.0000  0.0000  0.0151  0.0000  0.0000  0.0000  0.0000  0.0000 </r>
       </set>
       <set comment="band 18">
        <r>  0.2154  0.0008  0.0000  0.0001  0.0000  0.0000  0.0000  0.0000  0.0000 </r>
        <r>  0.0000  0.0000  0.1999  0.0000  0.0000  0.0000  0.0000  0.0000  0.0000 </r>
        <r>  0.1437  0.0000  0.0000  0.0135  0.0000  0.0000  0.0000  0.0000  0.0000 </r>
        <r>  0.0000  0.0000  0.0622  0.0000  0.0000  0.0000  0.0000  0.0000  0.0000 </r>
       </set>
       <set comment="band 19">
        <r>  0.0413  0.0000  0.0000  0.0000  0.0000  0.0000  0.0000  0.0000  0.0000 </r>
        <r>  0.0000  0.0000  0.1846  0.0000  0.0000  0.0000  0.0000  0.0000  0.0000 </r>
        <r>  0.0004  0.0000  0.0000  0.0011  0.0000  0.0000  0.0000  0.0000  0.0000 </r>
        <r>  0.0000  0.0000  0.0153  0.0000  0.0000  0.0000  0.0000  0.0000  0.0000 </r>
       </set>
       <set comment="band 20">
        <r>  0.0000  0.0000  0.1903  0.0000  0.0000  0.0000  0.0000  0.0000  0.0000 </r>
        <r>  0.0476  0.0000  0.0000  0.0000  0.0000  0.0000  0.0000  0.0000  0.0000 </r>
        <r>  0.0000  0.0000  0.0140  0.0000  0.0000  0.0000  0.0000  0.0000  0.0000 </r>
        <r>  0.0008  0.0000  0.0000  0.0008  0.0000  0.0000  0.0000  0.0000  0.0000 </r>
       </set>
      </set>
      <set comment="kpoint 139">
       <set comment="band 1">
        <r>  0.2668  0.0000  0.0000  0.0007  0.0000  0.0000  0.0000  0.0000  0.0000 </r>
        <r>  0.0000  0.0000  0.0000  0.0000  0.0000  0.0000  0.0000  0.0000  0.0000 </r>
        <r>  0.5074  0.0000  0.0000  0.0002  0.0000  0.0000  0.0000  0.0000  0.0000 </r>
        <r>  0.0000  0.0000  0.0000  0.0000  0.0000  0.0000  0.0000  0.0000  0.0000 </r>
       </set>
       <set comment="band 2">
        <r>  0.0000  0.0000  0.0000  0.0000  0.0000  0.0000  0.0000  0.0000  0.0000 </r>
        <r>  0.2668  0.0000  0.0000  0.0007  0.0000  0.0000  0.0000  0.0000  0.0000 </r>
        <r>  0.0000  0.0000  0.0000  0.0000  0.0000  0.0000  0.0000  0.0000  0.0000 </r>
        <r>  0.5073  0.0000  0.0000  0.0002  0.0000  0.0000  0.0000  0.0000  0.0000 </r>
       </set>
       <set comment="band 3">
        <r>  0.0000  0.0000  0.1927  0.0000  0.0000  0.0000  0.0000  0.0000  0.0000 </r>
        <r>  0.0002  0.0000  0.0000  0.0000  0.0000  0.0000  0.0000  0.0000  0.0000 </r>
        <r>  0.0000  0.0000  0.3179  0.0000  0.0000  0.0000  0.0000  0.0000  0.0000 </r>
        <r>  0.0011  0.0000  0.0000  0.0000  0.0000  0.0000  0.0000  0.0000  0.0000 </r>
       </set>
       <set comment="band 4">
        <r>  0.0002  0.0000  0.0000  0.0000  0.0000  0.0000  0.0000  0.0000  0.0000 </r>
        <r>  0.0000  0.0000  0.1926  0.0000  0.0000  0.0000  0.0000  0.0000  0.0000 </r>
        <r>  0.0011  0.0000  0.0000  0.0000  0.0000  0.0000  0.0000  0.0000  0.0000 </r>
        <r>  0.0000  0.0000  0.3175  0.0000  0.0000  0.0000  0.0000  0.0000  0.0000 </r>
       </set>
       <set comment="band 5">
        <r>  0.0025  0.0031  0.0000  0.2678  0.0000  0.0000  0.0000  0.0000  0.0000 </r>
        <r>  0.0000  0.0000  0.0000  0.0000  0.0000  0.0000  0.0000  0.0000  0.0000 </r>
        <r>  0.0018  0.0000  0.0000  0.6245  0.0000  0.0000  0.0000  0.0000  0.0000 </r>
        <r>  0.0000  0.0000  0.0000  0.0000  0.0000  0.0000  0.0000  0.0000  0.0000 </r>
       </set>
       <set comment="band 6">
        <r>  0.0000  0.0000  0.0000  0.0000  0.0000  0.0000  0.0000  0.0000  0.0000 </r>
        <r>  0.0025  0.0031  0.0000  0.2679  0.0000  0.0000  0.0000  0.0000  0.0000 </r>
        <r>  0.0000  0.0000  0.0000  0.0000  0.0000  0.0000  0.0000  0.0000  0.0000 </r>
        <r>  0.0018  0.0000  0.0000  0.6244  0.0000  0.0000  0.0000  0.0000  0.0000 </r>
       </set>
       <set comment="band 7">
        <r>  0.0000  0.2705  0.0000  0.0031  0.0000  0.0000  0.0000  0.0000  0.0000 </r>
        <r>  0.0000  0.0000  0.0000  0.0000  0.0000  0.0000  0.0000  0.0000  0.0000 </r>
        <r>  0.0000  0.6273  0.0000  0.0000  0.0000  0.0000  0.0000  0.0000  0.0000 </r>
        <r>  0.0000  0.0000  0.0000  0.0000  0.0000  0.0000  0.0000  0.0000  0.0000 </r>
       </set>
       <set comment="band 8">
        <r>  0.0000  0.0000  0.0000  0.0000  0.0000  0.0000  0.0000  0.0000  0.0000 </r>
        <r>  0.0000  0.2705  0.0000  0.0031  0.0000  0.0000  0.0000  0.0000  0.0000 </r>
        <r>  0.0000  0.0000  0.0000  0.0000  0.0000  0.0000  0.0000  0.0000  0.0000 </r>
        <r>  0.0000  0.6272  0.0000  0.0000  0.0000  0.0000  0.0000  0.0000  0.0000 </r>
       </set>
       <set comment="band 9">
        <r>  0.0032  0.0000  0.0000  0.0001  0.0000  0.0000  0.0000  0.0000  0.0000 </r>
        <r>  0.0000  0.0000  0.0053  0.0000  0.0000  0.0000  0.0000  0.0000  0.0000 </r>
        <r>  0.0959  0.0000  0.0000  0.0010  0.0000  0.0000  0.0000  0.0000  0.0000 </r>
        <r>  0.0000  0.0000  0.1008  0.0000  0.0000  0.0000  0.0000  0.0000  0.0000 </r>
       </set>
       <set comment="band 10">
        <r>  0.0000  0.0000  0.0052  0.0000  0.0000  0.0000  0.0000  0.0000  0.0000 </r>
        <r>  0.0031  0.0000  0.0000  0.0001  0.0000  0.0000  0.0000  0.0000  0.0000 </r>
        <r>  0.0000  0.0000  0.1012  0.0000  0.0000  0.0000  0.0000  0.0000  0.0000 </r>
        <r>  0.0956  0.0000  0.0000  0.0010  0.0000  0.0000  0.0000  0.0000  0.0000 </r>
       </set>
       <set comment="band 11">
        <r>  0.0003  0.0039  0.0000  0.4706  0.0000  0.0000  0.0000  0.0000  0.0000 </r>
        <r>  0.0000  0.0000  0.0007  0.0000  0.0000  0.0000  0.0000  0.0000  0.0000 </r>
        <r>  0.0063  0.0008  0.0000  0.1013  0.0000  0.0000  0.0000  0.0000  0.0000 </r>
        <r>  0.0000  0.0000  0.0021  0.0000  0.0000  0.0000  0.0000  0.0000  0.0000 </r>
       </set>
       <set comment="band 12">
        <r>  0.0000  0.0000  0.0002  0.0000  0.0000  0.0000  0.0000  0.0000  0.0000 </r>
        <r>  0.0001  0.0036  0.0000  0.4722  0.0000  0.0000  0.0000  0.0000  0.0000 </r>
        <r>  0.0000  0.0000  0.0012  0.0000  0.0000  0.0000  0.0000  0.0000  0.0000 </r>
        <r>  0.0054  0.0009  0.0000  0.1021  0.0000  0.0000  0.0000  0.0000  0.0000 </r>
       </set>
       <set comment="band 13">
        <r>  0.0002  0.4757  0.0000  0.0040  0.0000  0.0000  0.0000  0.0000  0.0000 </r>
        <r>  0.0000  0.0000  0.0000  0.0000  0.0000  0.0000  0.0000  0.0000  0.0000 </r>
        <r>  0.0001  0.1086  0.0000  0.0007  0.0000  0.0000  0.0000  0.0000  0.0000 </r>
        <r>  0.0000  0.0000  0.0001  0.0000  0.0000  0.0000  0.0000  0.0000  0.0000 </r>
       </set>
       <set comment="band 14">
        <r>  0.0000  0.0000  0.0001  0.0000  0.0000  0.0000  0.0000  0.0000  0.0000 </r>
        <r>  0.0002  0.4757  0.0000  0.0038  0.0000  0.0000  0.0000  0.0000  0.0000 </r>
        <r>  0.0000  0.0000  0.0002  0.0000  0.0000  0.0000  0.0000  0.0000  0.0000 </r>
        <r>  0.0001  0.1086  0.0000  0.0007  0.0000  0.0000  0.0000  0.0000  0.0000 </r>
       </set>
       <set comment="band 15">
        <r>  0.0000  0.0000  0.1547  0.0000  0.0000  0.0000  0.0000  0.0000  0.0000 </r>
        <r>  0.0853  0.0005  0.0000  0.0018  0.0000  0.0000  0.0000  0.0000  0.0000 </r>
        <r>  0.0000  0.0000  0.2959  0.0000  0.0000  0.0000  0.0000  0.0000  0.0000 </r>
        <r>  0.1224  0.0000  0.0000  0.0044  0.0000  0.0000  0.0000  0.0000  0.0000 </r>
       </set>
       <set comment="band 16">
        <r>  0.0888  0.0005  0.0000  0.0034  0.0000  0.0000  0.0000  0.0000  0.0000 </r>
        <r>  0.0000  0.0000  0.1489  0.0000  0.0000  0.0000  0.0000  0.0000  0.0000 </r>
        <r>  0.1255  0.0000  0.0000  0.0056  0.0000  0.0000  0.0000  0.0000  0.0000 </r>
        <r>  0.0000  0.0000  0.2900  0.0000  0.0000  0.0000  0.0000  0.0000  0.0000 </r>
       </set>
       <set comment="band 17">
        <r>  0.0000  0.0000  0.2139  0.0000  0.0000  0.0000  0.0000  0.0000  0.0000 </r>
        <r>  0.2009  0.0000  0.0000  0.0002  0.0000  0.0000  0.0000  0.0000  0.0000 </r>
        <r>  0.0000  0.0000  0.0766  0.0000  0.0000  0.0000  0.0000  0.0000  0.0000 </r>
        <r>  0.1393  0.0000  0.0000  0.0036  0.0000  0.0000  0.0000  0.0000  0.0000 </r>
       </set>
       <set comment="band 18">
        <r>  0.2000  0.0000  0.0000  0.0001  0.0000  0.0000  0.0000  0.0000  0.0000 </r>
        <r>  0.0000  0.0000  0.2200  0.0000  0.0000  0.0000  0.0000  0.0000  0.0000 </r>
        <r>  0.1356  0.0000  0.0000  0.0032  0.0000  0.0000  0.0000  0.0000  0.0000 </r>
        <r>  0.0000  0.0000  0.0825  0.0000  0.0000  0.0000  0.0000  0.0000  0.0000 </r>
       </set>
       <set comment="band 19">
        <r>  0.0373  0.0000  0.0000  0.0000  0.0000  0.0000  0.0000  0.0000  0.0000 </r>
        <r>  0.0000  0.0000  0.1918  0.0000  0.0000  0.0000  0.0000  0.0000  0.0000 </r>
        <r>  0.0005  0.0000  0.0000  0.0003  0.0000  0.0000  0.0000  0.0000  0.0000 </r>
        <r>  0.0000  0.0000  0.0129  0.0000  0.0000  0.0000  0.0000  0.0000  0.0000 </r>
       </set>
       <set comment="band 20">
        <r>  0.0000  0.0000  0.1977  0.0000  0.0000  0.0000  0.0000  0.0000  0.0000 </r>
        <r>  0.0432  0.0000  0.0000  0.0000  0.0000  0.0000  0.0000  0.0000  0.0000 </r>
        <r>  0.0000  0.0000  0.0117  0.0000  0.0000  0.0000  0.0000  0.0000  0.0000 </r>
        <r>  0.0008  0.0000  0.0000  0.0002  0.0000  0.0000  0.0000  0.0000  0.0000 </r>
       </set>
      </set>
      <set comment="kpoint 140">
       <set comment="band 1">
        <r>  0.2676  0.0000  0.0000  0.0000  0.0000  0.0000  0.0000  0.0000  0.0000 </r>
        <r>  0.0000  0.0000  0.0000  0.0000  0.0000  0.0000  0.0000  0.0000  0.0000 </r>
        <r>  0.5072  0.0000  0.0000  0.0000  0.0000  0.0000  0.0000  0.0000  0.0000 </r>
        <r>  0.0000  0.0000  0.0000  0.0000  0.0000  0.0000  0.0000  0.0000  0.0000 </r>
       </set>
       <set comment="band 2">
        <r>  0.0000  0.0000  0.0000  0.0000  0.0000  0.0000  0.0000  0.0000  0.0000 </r>
        <r>  0.2676  0.0000  0.0000  0.0000  0.0000  0.0000  0.0000  0.0000  0.0000 </r>
        <r>  0.0000  0.0000  0.0000  0.0000  0.0000  0.0000  0.0000  0.0000  0.0000 </r>
        <r>  0.5071  0.0000  0.0000  0.0000  0.0000  0.0000  0.0000  0.0000  0.0000 </r>
       </set>
       <set comment="band 3">
        <r>  0.0000  0.0000  0.1929  0.0000  0.0000  0.0000  0.0000  0.0000  0.0000 </r>
        <r>  0.0002  0.0000  0.0000  0.0000  0.0000  0.0000  0.0000  0.0000  0.0000 </r>
        <r>  0.0000  0.0000  0.3175  0.0000  0.0000  0.0000  0.0000  0.0000  0.0000 </r>
        <r>  0.0011  0.0000  0.0000  0.0000  0.0000  0.0000  0.0000  0.0000  0.0000 </r>
       </set>
       <set comment="band 4">
        <r>  0.0002  0.0000  0.0000  0.0000  0.0000  0.0000  0.0000  0.0000  0.0000 </r>
        <r>  0.0000  0.0000  0.1929  0.0000  0.0000  0.0000  0.0000  0.0000  0.0000 </r>
        <r>  0.0011  0.0000  0.0000  0.0000  0.0000  0.0000  0.0000  0.0000  0.0000 </r>
        <r>  0.0000  0.0000  0.3172  0.0000  0.0000  0.0000  0.0000  0.0000  0.0000 </r>
       </set>
       <set comment="band 5">
        <r>  0.0000  0.2723  0.0000  0.0000  0.0000  0.0000  0.0000  0.0000  0.0000 </r>
        <r>  0.0000  0.0000  0.0000  0.0000  0.0000  0.0000  0.0000  0.0000  0.0000 </r>
        <r>  0.0000  0.6289  0.0000  0.0000  0.0000  0.0000  0.0000  0.0000  0.0000 </r>
        <r>  0.0000  0.0000  0.0000  0.0000  0.0000  0.0000  0.0000  0.0000  0.0000 </r>
       </set>
       <set comment="band 6">
        <r>  0.0000  0.0000  0.0000  0.2723  0.0000  0.0000  0.0000  0.0000  0.0000 </r>
        <r>  0.0000  0.0000  0.0000  0.0000  0.0000  0.0000  0.0000  0.0000  0.0000 </r>
        <r>  0.0000  0.0000  0.0000  0.6289  0.0000  0.0000  0.0000  0.0000  0.0000 </r>
        <r>  0.0000  0.0000  0.0000  0.0000  0.0000  0.0000  0.0000  0.0000  0.0000 </r>
       </set>
       <set comment="band 7">
        <r>  0.0000  0.0000  0.0000  0.0000  0.0000  0.0000  0.0000  0.0000  0.0000 </r>
        <r>  0.0000  0.2724  0.0000  0.0000  0.0000  0.0000  0.0000  0.0000  0.0000 </r>
        <r>  0.0000  0.0000  0.0000  0.0000  0.0000  0.0000  0.0000  0.0000  0.0000 </r>
        <r>  0.0000  0.6288  0.0000  0.0000  0.0000  0.0000  0.0000  0.0000  0.0000 </r>
       </set>
       <set comment="band 8">
        <r>  0.0000  0.0000  0.0000  0.0000  0.0000  0.0000  0.0000  0.0000  0.0000 </r>
        <r>  0.0000  0.0000  0.0000  0.2724  0.0000  0.0000  0.0000  0.0000  0.0000 </r>
        <r>  0.0000  0.0000  0.0000  0.0000  0.0000  0.0000  0.0000  0.0000  0.0000 </r>
        <r>  0.0000  0.0000  0.0000  0.6288  0.0000  0.0000  0.0000  0.0000  0.0000 </r>
       </set>
       <set comment="band 9">
        <r>  0.0034  0.0000  0.0000  0.0000  0.0000  0.0000  0.0000  0.0000  0.0000 </r>
        <r>  0.0000  0.0000  0.0054  0.0000  0.0000  0.0000  0.0000  0.0000  0.0000 </r>
        <r>  0.0971  0.0000  0.0000  0.0000  0.0000  0.0000  0.0000  0.0000  0.0000 </r>
        <r>  0.0000  0.0000  0.1001  0.0000  0.0000  0.0000  0.0000  0.0000  0.0000 </r>
       </set>
       <set comment="band 10">
        <r>  0.0000  0.0000  0.0054  0.0000  0.0000  0.0000  0.0000  0.0000  0.0000 </r>
        <r>  0.0033  0.0000  0.0000  0.0000  0.0000  0.0000  0.0000  0.0000  0.0000 </r>
        <r>  0.0000  0.0000  0.1005  0.0000  0.0000  0.0000  0.0000  0.0000  0.0000 </r>
        <r>  0.0968  0.0000  0.0000  0.0000  0.0000  0.0000  0.0000  0.0000  0.0000 </r>
       </set>
       <set comment="band 11">
        <r>  0.0000  0.4769  0.0000  0.0044  0.0000  0.0000  0.0000  0.0000  0.0000 </r>
        <r>  0.0000  0.0000  0.0000  0.0000  0.0000  0.0000  0.0000  0.0000  0.0000 </r>
        <r>  0.0000  0.1066  0.0000  0.0010  0.0000  0.0000  0.0000  0.0000  0.0000 </r>
        <r>  0.0000  0.0000  0.0000  0.0000  0.0000  0.0000  0.0000  0.0000  0.0000 </r>
       </set>
       <set comment="band 12">
        <r>  0.0000  0.0044  0.0000  0.4769  0.0000  0.0000  0.0000  0.0000  0.0000 </r>
        <r>  0.0000  0.0000  0.0000  0.0000  0.0000  0.0000  0.0000  0.0000  0.0000 </r>
        <r>  0.0000  0.0010  0.0000  0.1066  0.0000  0.0000  0.0000  0.0000  0.0000 </r>
        <r>  0.0000  0.0000  0.0000  0.0000  0.0000  0.0000  0.0000  0.0000  0.0000 </r>
       </set>
       <set comment="band 13">
        <r>  0.0000  0.0000  0.0000  0.0000  0.0000  0.0000  0.0000  0.0000  0.0000 </r>
        <r>  0.0000  0.4812  0.0000  0.0000  0.0000  0.0000  0.0000  0.0000  0.0000 </r>
        <r>  0.0000  0.0000  0.0000  0.0000  0.0000  0.0000  0.0000  0.0000  0.0000 </r>
        <r>  0.0000  0.1076  0.0000  0.0000  0.0000  0.0000  0.0000  0.0000  0.0000 </r>
       </set>
       <set comment="band 14">
        <r>  0.0000  0.0000  0.0000  0.0000  0.0000  0.0000  0.0000  0.0000  0.0000 </r>
        <r>  0.0000  0.0000  0.0000  0.4812  0.0000  0.0000  0.0000  0.0000  0.0000 </r>
        <r>  0.0000  0.0000  0.0000  0.0000  0.0000  0.0000  0.0000  0.0000  0.0000 </r>
        <r>  0.0000  0.0000  0.0000  0.1076  0.0000  0.0000  0.0000  0.0000  0.0000 </r>
       </set>
       <set comment="band 15">
        <r>  0.0946  0.0000  0.0000  0.0000  0.0000  0.0000  0.0000  0.0000  0.0000 </r>
        <r>  0.0000  0.0000  0.1415  0.0000  0.0000  0.0000  0.0000  0.0000  0.0000 </r>
        <r>  0.1364  0.0000  0.0000  0.0000  0.0000  0.0000  0.0000  0.0000  0.0000 </r>
        <r>  0.0000  0.0000  0.2876  0.0000  0.0000  0.0000  0.0000  0.0000  0.0000 </r>
       </set>
       <set comment="band 16">
        <r>  0.0000  0.0000  0.1467  0.0000  0.0000  0.0000  0.0000  0.0000  0.0000 </r>
        <r>  0.0910  0.0000  0.0000  0.0000  0.0000  0.0000  0.0000  0.0000  0.0000 </r>
        <r>  0.0000  0.0000  0.2928  0.0000  0.0000  0.0000  0.0000  0.0000  0.0000 </r>
        <r>  0.1322  0.0000  0.0000  0.0000  0.0000  0.0000  0.0000  0.0000  0.0000 </r>
       </set>
       <set comment="band 17">
        <r>  0.0000  0.0000  0.2207  0.0000  0.0000  0.0000  0.0000  0.0000  0.0000 </r>
        <r>  0.1951  0.0000  0.0000  0.0000  0.0000  0.0000  0.0000  0.0000  0.0000 </r>
        <r>  0.0000  0.0000  0.0839  0.0000  0.0000  0.0000  0.0000  0.0000  0.0000 </r>
        <r>  0.1365  0.0000  0.0000  0.0000  0.0000  0.0000  0.0000  0.0000  0.0000 </r>
       </set>
       <set comment="band 18">
        <r>  0.1943  0.0000  0.0000  0.0000  0.0000  0.0000  0.0000  0.0000  0.0000 </r>
        <r>  0.0000  0.0000  0.2267  0.0000  0.0000  0.0000  0.0000  0.0000  0.0000 </r>
        <r>  0.1324  0.0000  0.0000  0.0000  0.0000  0.0000  0.0000  0.0000  0.0000 </r>
        <r>  0.0000  0.0000  0.0901  0.0000  0.0000  0.0000  0.0000  0.0000  0.0000 </r>
       </set>
       <set comment="band 19">
        <r>  0.0359  0.0000  0.0000  0.0000  0.0000  0.0000  0.0000  0.0000  0.0000 </r>
        <r>  0.0000  0.0000  0.1942  0.0000  0.0000  0.0000  0.0000  0.0000  0.0000 </r>
        <r>  0.0005  0.0000  0.0000  0.0000  0.0000  0.0000  0.0000  0.0000  0.0000 </r>
        <r>  0.0000  0.0000  0.0121  0.0000  0.0000  0.0000  0.0000  0.0000  0.0000 </r>
       </set>
       <set comment="band 20">
        <r>  0.0000  0.0000  0.2001  0.0000  0.0000  0.0000  0.0000  0.0000  0.0000 </r>
        <r>  0.0413  0.0000  0.0000  0.0000  0.0000  0.0000  0.0000  0.0000  0.0000 </r>
        <r>  0.0000  0.0000  0.0109  0.0000  0.0000  0.0000  0.0000  0.0000  0.0000 </r>
        <r>  0.0008  0.0000  0.0000  0.0000  0.0000  0.0000  0.0000  0.0000  0.0000 </r>
       </set>
      </set>
     </set>
    </set>
   </array>
  </projected>
 </calculation>
 <structure name="finalpos" >
  <crystal>
   <varray name="basis" >
    <v>       1.25623732      -2.17586686       0.00000000 </v>
    <v>       1.25623732       2.17586686       0.00000000 </v>
    <v>       0.00000000       0.00000000       7.52645917 </v>
   </varray>
   <i name="volume">     41.14572454 </i>
   <varray name="rec_basis" >
    <v>       0.39801397      -0.22979347       0.00000000 </v>
    <v>       0.39801397       0.22979347       0.00000000 </v>
    <v>       0.00000000       0.00000000       0.13286460 </v>
   </varray>
  </crystal>
  <varray name="positions" >
   <v>       0.00000000       0.00000000       0.00000000 </v>
   <v>       0.33333333       0.66666667       0.50000000 </v>
   <v>       0.33333333       0.66666667       0.00000000 </v>
   <v>       0.66666667       0.33333333       0.50000000 </v>
  </varray>
 </structure>
</modeling>
