BN                                      
   1.00000000000000     
     1.256237   -2.175867    0.000000
     1.256237    2.175867    0.000000
     0.000000    0.000000    7.526459
   B    N 
     2     2
Direct
  0.000000  0.000000  0.000000
  0.333333  0.666667  0.500000
  0.333333  0.666667  0.000000
  0.666667  0.333333  0.500000
 
   28   28   84
 0.12466745765E+02 0.14658628377E+02 0.20396752967E+02 0.27635918165E+02 0.34187326305E+02
 0.38689080926E+02 0.40927368149E+02 0.41534888716E+02 0.41377279960E+02 0.41118733575E+02
 0.41074225881E+02 0.41248694058E+02 0.41507180370E+02 0.41715042612E+02 0.41792662651E+02
 0.41713673350E+02 0.41502071197E+02 0.41240898633E+02 0.41072839551E+02 0.41125973971E+02
 0.41383067647E+02 0.41538496336E+02 0.40929048425E+02 0.38686345455E+02 0.34185459219E+02
 0.27634901597E+02 0.20396786571E+02 0.14658755011E+02 0.14658755011E+02 0.14658542181E+02
 0.18089084710E+02 0.23586192304E+02 0.29187301568E+02 0.33310292908E+02 0.35342501471E+02
 0.35569775714E+02 0.34735064124E+02 0.33558886149E+02 0.32497338020E+02 0.31743971083E+02
 0.31300121698E+02 0.31078575841E+02 0.30990027164E+02 0.30988759850E+02 0.31077474656E+02
 0.31303902560E+02 0.31750780135E+02 0.32502199493E+02 0.33559685270E+02 0.34734724370E+02
 0.35567081050E+02 0.35338198499E+02 0.33309164445E+02 0.29186715555E+02 0.23586714846E+02
 0.18089155274E+02 0.20396786571E+02 0.19142609374E+02 0.20396937561E+02 0.23585847008E+02
 0.27334902216E+02 0.30251027581E+02 0.31568124123E+02 0.31313756629E+02 0.30007280063E+02
 0.28268353617E+02 0.26569678985E+02 0.25167725870E+02 0.24147197170E+02 0.23485735368E+02
 0.23123876528E+02 0.23009624751E+02 0.23124241161E+02 0.23487004606E+02 0.24149438648E+02
 0.25170446350E+02 0.26570188255E+02 0.28264928800E+02 0.30000030389E+02 0.31309383717E+02
 0.31569154706E+02 0.30253541767E+02 0.27337710215E+02 0.23586714846E+02 0.27634901597E+02
 0.26517278252E+02 0.26517673132E+02 0.27635482463E+02 0.29187380279E+02 0.30252184384E+02
 0.30217961066E+02 0.29025210893E+02 0.27048568490E+02 0.24782101323E+02 0.22606947484E+02
 0.20743816925E+02 0.19287434606E+02 0.18250132263E+02 0.17596208227E+02 0.17283104943E+02
 0.17283736287E+02 0.17597784539E+02 0.18251620256E+02 0.19288005809E+02 0.20741317144E+02
 0.22602169763E+02 0.24778764259E+02 0.27049633700E+02 0.29028104370E+02 0.30219711234E+02
 0.30253541767E+02 0.29186715555E+02 0.34185459219E+02 0.34455951428E+02 0.34489015054E+02
 0.34456860042E+02 0.34187313292E+02 0.33311364233E+02 0.31568035427E+02 0.29023717274E+02
 0.26024191722E+02 0.22993198494E+02 0.20247927300E+02 0.17942155444E+02 0.16115948120E+02
 0.14753357036E+02 0.13822524058E+02 0.13284597554E+02 0.13109380481E+02 0.13285082820E+02
 0.13822327082E+02 0.14750702934E+02 0.16109892178E+02 0.17937613970E+02 0.20248161783E+02
 0.22998199028E+02 0.26030108390E+02 0.29028104370E+02 0.31569154706E+02 0.33309164445E+02
 0.38686345455E+02 0.41029607217E+02 0.42218825803E+02 0.42219169179E+02 0.41031175302E+02
 0.38688893440E+02 0.35342497527E+02 0.31311803945E+02 0.27048536574E+02 0.22994692823E+02
 0.19450893459E+02 0.16542112148E+02 0.14266745935E+02 0.12564141966E+02 0.11356640930E+02
 0.10584598990E+02 0.10208411794E+02 0.10208529646E+02 0.10584479653E+02 0.11355665467E+02
 0.12563341092E+02 0.14268514477E+02 0.16545223632E+02 0.19454710027E+02 0.22998199028E+02
 0.27049633700E+02 0.31309383717E+02 0.35338198499E+02 0.40929048425E+02 0.45421781944E+02
 0.48415559636E+02 0.49465214440E+02 0.48411857997E+02 0.45417585682E+02 0.40926984232E+02
 0.35570288269E+02 0.30007281442E+02 0.24784326279E+02 0.20247935378E+02 0.16540964292E+02
 0.13653715986E+02 0.11491026775E+02 0.99411628186E+01 0.89014911629E+01 0.83019954120E+01
 0.81056592494E+01 0.83012059638E+01 0.89003115870E+01 0.99407797967E+01 0.11493278383E+02
 0.13657089887E+02 0.16545223632E+02 0.20248161783E+02 0.24778764259E+02 0.30000030389E+02
 0.35567081050E+02 0.41538496336E+02 0.47908085054E+02 0.52905316779E+02 0.55664745438E+02
 0.55664125761E+02 0.52903305253E+02 0.47906211535E+02 0.41537286269E+02 0.34735440376E+02
 0.28267982643E+02 0.22607079323E+02 0.17940330390E+02 0.14266993065E+02 0.11491763886E+02
 0.94745211630E+01 0.80841650383E+01 0.72142675465E+01 0.67954860545E+01 0.67955833291E+01
 0.72144151820E+01 0.80849491244E+01 0.94758534114E+01 0.11493278383E+02 0.14268514477E+02
 0.17937613970E+02 0.22602169763E+02 0.28264928800E+02 0.34734724370E+02 0.41383067647E+02
 0.49322196414E+02 0.56303811304E+02 0.61133467317E+02 0.62864600302E+02 0.61134297683E+02
 0.56301605773E+02 0.49317003737E+02 0.41377618665E+02 0.33556785478E+02 0.26569830530E+02
 0.20744387411E+02 0.16115979152E+02 0.12565691076E+02 0.99409966334E+01 0.80841641681E+01
 0.68601727577E+01 0.61671920376E+01 0.59428632476E+01 0.61672559549E+01 0.68606277735E+01
 0.80849491244E+01 0.99407797967E+01 0.12563341092E+02 0.16109892178E+02 0.20741317144E+02
 0.26570188255E+02 0.33559685270E+02 0.41125973971E+02 0.50450258363E+02 0.59393196956E+02
 0.66542920772E+02 0.70538630350E+02 0.70541291462E+02 0.66550274700E+02 0.59400051188E+02
 0.50449493672E+02 0.41118539324E+02 0.32497708745E+02 0.25169866753E+02 0.19287378284E+02
 0.14752783531E+02 0.11356815103E+02 0.89002997746E+01 0.72143344363E+01 0.61671545958E+01
 0.56674767596E+01 0.56672862588E+01 0.61672559549E+01 0.72144151820E+01 0.89003115870E+01
 0.11355665467E+02 0.14750702934E+02 0.19288005809E+02 0.25170446350E+02 0.32502199493E+02
 0.41072839551E+02 0.51697715130E+02 0.62616564345E+02 0.72299455297E+02 0.79043480595E+02
 0.81470599367E+02 0.79044163029E+02 0.72300534500E+02 0.62619793317E+02 0.51706385431E+02
 0.41074310462E+02 0.31744714133E+02 0.24146928448E+02 0.18248847454E+02 0.13822469200E+02
 0.10585505665E+02 0.83018450518E+01 0.67957715050E+01 0.59428680655E+01 0.56674767596E+01
 0.59428632476E+01 0.67955833291E+01 0.83012059638E+01 0.10584479653E+02 0.13822327082E+02
 0.18251620256E+02 0.24149438648E+02 0.31750780135E+02 0.41240898633E+02 0.53069291882E+02
 0.65937112867E+02 0.78391318137E+02 0.88451687279E+02 0.94110752730E+02 0.94110278708E+02
 0.88451756658E+02 0.78397244888E+02 0.65940364293E+02 0.53070396693E+02 0.41246683676E+02
 0.31300474416E+02 0.23485259102E+02 0.17596866764E+02 0.13284746942E+02 0.10208713252E+02
 0.81055273076E+01 0.67957715050E+01 0.61671545958E+01 0.61671920376E+01 0.67954860545E+01
 0.81056592494E+01 0.10208529646E+02 0.13285082820E+02 0.17597784539E+02 0.23487004606E+02
 0.31303902560E+02 0.41502071197E+02 0.54358725072E+02 0.69115370194E+02 0.84502480408E+02
 0.98285946897E+02 0.10791188793E+03 0.11136921653E+03 0.10790454943E+03 0.98274501600E+02
 0.84495228414E+02 0.69120310622E+02 0.54359281800E+02 0.41506997611E+02 0.31080770629E+02
 0.23123836860E+02 0.17283905257E+02 0.13108564725E+02 0.10208713252E+02 0.83018450518E+01
 0.72143344363E+01 0.68601727577E+01 0.72142675465E+01 0.83019954120E+01 0.10208411794E+02
 0.13109380481E+02 0.17283736287E+02 0.23124241161E+02 0.31077474656E+02 0.41713673350E+02
 0.55361155065E+02 0.71786249100E+02 0.89867116346E+02 0.10719228864E+03 0.12084765779E+03
 0.12835393185E+03 0.12835403571E+03 0.12084547821E+03 0.10718897120E+03 0.89858163935E+02
 0.71785631212E+02 0.55364647692E+02 0.41715610180E+02 0.30991504138E+02 0.23008307410E+02
 0.17283905257E+02 0.13284746942E+02 0.10585505665E+02 0.89002997746E+01 0.80841641681E+01
 0.80841650383E+01 0.89014911629E+01 0.10584598990E+02 0.13284597554E+02 0.17283104943E+02
 0.23009624751E+02 0.30988759850E+02 0.41792662651E+02 0.55911385930E+02 0.73549292055E+02
 0.93726905280E+02 0.11381660493E+03 0.13059800888E+03 0.14152095345E+03 0.14528186944E+03
 0.14152494993E+03 0.13060312181E+03 0.11382088675E+03 0.93725164109E+02 0.73544733780E+02
 0.55911075236E+02 0.41791411993E+02 0.30991504138E+02 0.23123836860E+02 0.17596866764E+02
 0.13822469200E+02 0.11356815103E+02 0.99409966334E+01 0.94745211630E+01 0.99411628186E+01
 0.11356640930E+02 0.13822524058E+02 0.17596208227E+02 0.23123876528E+02 0.30990027164E+02
 0.41715042612E+02 0.55912574547E+02 0.74160495456E+02 0.95693359221E+02 0.11761007862E+03
 0.13617403972E+03 0.14878711786E+03 0.15488059655E+03 0.15488619017E+03 0.14879963873E+03
 0.13618414444E+03 0.11761594144E+03 0.95693320381E+02 0.74154686059E+02 0.55911075236E+02
 0.41715610180E+02 0.31080770629E+02 0.23485259102E+02 0.18248847454E+02 0.14752783531E+02
 0.12565691076E+02 0.11491763886E+02 0.11491026775E+02 0.12564141966E+02 0.14753357036E+02
 0.18250132263E+02 0.23485735368E+02 0.31078575841E+02 0.41507180370E+02 0.55364090892E+02
 0.73544517314E+02 0.95690301539E+02 0.11880137949E+03 0.13836820285E+03 0.15116883496E+03
 0.15726301196E+03 0.15885886960E+03 0.15726137868E+03 0.15116887410E+03 0.13836965495E+03
 0.11880208732E+03 0.95693320381E+02 0.73544733780E+02 0.55364647692E+02 0.41506997611E+02
 0.31300474416E+02 0.24146928448E+02 0.19287378284E+02 0.16115979152E+02 0.14266993065E+02
 0.13653715986E+02 0.14266745935E+02 0.16115948120E+02 0.19287434606E+02 0.24147197170E+02
 0.31300121698E+02 0.41248694058E+02 0.54360044519E+02 0.71782463390E+02 0.93718131112E+02
 0.11761251202E+03 0.13837223288E+03 0.15146913336E+03 0.15643194412E+03 0.15694667766E+03
 0.15694156644E+03 0.15642075800E+03 0.15145923770E+03 0.13836965495E+03 0.11761594144E+03
 0.93725164109E+02 0.71785631212E+02 0.54359281800E+02 0.41246683676E+02 0.31744714133E+02
 0.25169866753E+02 0.20744387411E+02 0.17940330390E+02 0.16540964292E+02 0.16542112148E+02
 0.17942155444E+02 0.20743816925E+02 0.25167725870E+02 0.31743971083E+02 0.41074225881E+02
 0.53070094127E+02 0.69119876192E+02 0.89856085339E+02 0.11381966035E+03 0.13618335064E+03
 0.15117416544E+03 0.15642728689E+03 0.15529201925E+03 0.15389543077E+03 0.15528856187E+03
 0.15642075800E+03 0.15116887410E+03 0.13618414444E+03 0.11382088675E+03 0.89858163935E+02
 0.69120310622E+02 0.53070396693E+02 0.41074310462E+02 0.32497708745E+02 0.26569830530E+02
 0.22607079323E+02 0.20247935378E+02 0.19450893459E+02 0.20247927300E+02 0.22606947484E+02
 0.26569678985E+02 0.32497338020E+02 0.41118733575E+02 0.51704119724E+02 0.65939316344E+02
 0.84497598087E+02 0.10719145245E+03 0.13060148578E+03 0.14879378264E+03 0.15725426315E+03
 0.15693980241E+03 0.15389529036E+03 0.15389543077E+03 0.15694156644E+03 0.15726137868E+03
 0.14879963873E+03 0.13060312181E+03 0.10718897120E+03 0.84495228414E+02 0.65940364293E+02
 0.51706385431E+02 0.41118539324E+02 0.33556785478E+02 0.28267982643E+02 0.24784326279E+02
 0.22994692823E+02 0.22993198494E+02 0.24782101323E+02 0.28268353617E+02 0.33558886149E+02
 0.41377279960E+02 0.50448787594E+02 0.62619629950E+02 0.78397455199E+02 0.98277147373E+02
 0.12084724509E+03 0.14152506914E+03 0.15488021404E+03 0.15884922585E+03 0.15693980241E+03
 0.15529201925E+03 0.15694667766E+03 0.15885886960E+03 0.15488619017E+03 0.14152494993E+03
 0.12084547821E+03 0.98274501600E+02 0.78397244888E+02 0.62619793317E+02 0.50449493672E+02
 0.41377618665E+02 0.34735440376E+02 0.30007281442E+02 0.27048536574E+02 0.26024191722E+02
 0.27048568490E+02 0.30007280063E+02 0.34735064124E+02 0.41534888716E+02 0.49316277178E+02
 0.59400704408E+02 0.72300047596E+02 0.88448665101E+02 0.10790419600E+03 0.12835752071E+03
 0.14528520177E+03 0.15488021404E+03 0.15725426315E+03 0.15642728689E+03 0.15643194412E+03
 0.15726301196E+03 0.15488059655E+03 0.14528186944E+03 0.12835403571E+03 0.10790454943E+03
 0.88451756658E+02 0.72300534500E+02 0.59400051188E+02 0.49317003737E+02 0.41537286269E+02
 0.35570288269E+02 0.31311803945E+02 0.29023717274E+02 0.29025210893E+02 0.31313756629E+02
 0.35569775714E+02 0.40927368149E+02 0.47906219206E+02 0.56301614412E+02 0.66548135205E+02
 0.79042072651E+02 0.94106862861E+02 0.11136943815E+03 0.12835752071E+03 0.14152506914E+03
 0.14879378264E+03 0.15117416544E+03 0.15146913336E+03 0.15116883496E+03 0.14878711786E+03
 0.14152095345E+03 0.12835393185E+03 0.11136921653E+03 0.94110278708E+02 0.79044163029E+02
 0.66550274700E+02 0.56301605773E+02 0.47906211535E+02 0.40926984232E+02 0.35342497527E+02
 0.31568035427E+02 0.30217961066E+02 0.31568124123E+02 0.35342501471E+02 0.38689080926E+02
 0.45419651995E+02 0.52903956097E+02 0.61134634405E+02 0.70540400038E+02 0.81469855305E+02
 0.94106862861E+02 0.10790419600E+03 0.12084724509E+03 0.13060148578E+03 0.13618335064E+03
 0.13837223288E+03 0.13836820285E+03 0.13617403972E+03 0.13059800888E+03 0.12084765779E+03
 0.10791188793E+03 0.94110752730E+02 0.81470599367E+02 0.70541291462E+02 0.61134297683E+02
 0.52903305253E+02 0.45417585682E+02 0.38688893440E+02 0.33311364233E+02 0.30252184384E+02
 0.30251027581E+02 0.33310292908E+02 0.34187326305E+02 0.41030728968E+02 0.48412190001E+02
 0.55664804203E+02 0.62867323055E+02 0.70540400038E+02 0.79042072651E+02 0.88448665101E+02
 0.98277147373E+02 0.10719145245E+03 0.11381966035E+03 0.11761251202E+03 0.11880137949E+03
 0.11761007862E+03 0.11381660493E+03 0.10719228864E+03 0.98285946897E+02 0.88451687279E+02
 0.79043480595E+02 0.70538630350E+02 0.62864600302E+02 0.55664125761E+02 0.48411857997E+02
 0.41031175302E+02 0.34187313292E+02 0.29187380279E+02 0.27334902216E+02 0.29187301568E+02
 0.27635918165E+02 0.34456474128E+02 0.42217797214E+02 0.49463871089E+02 0.55664804203E+02
 0.61134634405E+02 0.66548135205E+02 0.72300047596E+02 0.78397455199E+02 0.84497598087E+02
 0.89856085339E+02 0.93718131112E+02 0.95690301539E+02 0.95693359221E+02 0.93726905280E+02
 0.89867116346E+02 0.84502480408E+02 0.78391318137E+02 0.72299455297E+02 0.66542920772E+02
 0.61133467317E+02 0.55664745438E+02 0.49465214440E+02 0.42219169179E+02 0.34456860042E+02
 0.27635482463E+02 0.23585847008E+02 0.23586192304E+02 0.20396752967E+02 0.26517766628E+02
 0.34488562863E+02 0.42217797214E+02 0.48412190001E+02 0.52903956097E+02 0.56301614412E+02
 0.59400704408E+02 0.62619629950E+02 0.65939316344E+02 0.69119876192E+02 0.71782463390E+02
 0.73544517314E+02 0.74160495456E+02 0.73549292055E+02 0.71786249100E+02 0.69115370194E+02
 0.65937112867E+02 0.62616564345E+02 0.59393196956E+02 0.56303811304E+02 0.52905316779E+02
 0.48415559636E+02 0.42218825803E+02 0.34489015054E+02 0.26517673132E+02 0.20396937561E+02
 0.18089084710E+02 0.14658628377E+02 0.19142183104E+02 0.26517766628E+02 0.34456474128E+02
 0.41030728968E+02 0.45419651995E+02 0.47906219206E+02 0.49316277178E+02 0.50448787594E+02
 0.51704119724E+02 0.53070094127E+02 0.54360044519E+02 0.55364090892E+02 0.55912574547E+02
 0.55911385930E+02 0.55361155065E+02 0.54358725072E+02 0.53069291882E+02 0.51697715130E+02
 0.50450258363E+02 0.49322196414E+02 0.47908085054E+02 0.45421781944E+02 0.41029607217E+02
 0.34455951428E+02 0.26517278252E+02 0.19142609374E+02 0.14658542181E+02 0.13066708169E+02
 0.15148991073E+02 0.20599887696E+02 0.27475285845E+02 0.33694827078E+02 0.37963312643E+02
 0.40078006987E+02 0.40639817748E+02 0.40478050601E+02 0.40223993616E+02 0.40178065676E+02
 0.40347521242E+02 0.40601787378E+02 0.40805948538E+02 0.40882514219E+02 0.40804822635E+02
 0.40596072684E+02 0.40339903671E+02 0.40176155003E+02 0.40229008847E+02 0.40482917477E+02
 0.40644908841E+02 0.40080678556E+02 0.37961843267E+02 0.33693192029E+02 0.27474115547E+02
 0.20599653690E+02 0.15149092006E+02 0.15149048643E+02 0.15148776468E+02 0.18397629746E+02
 0.23601082157E+02 0.28896073555E+02 0.32782184389E+02 0.34677578332E+02 0.34857293826E+02
 0.34027282460E+02 0.32877868062E+02 0.31846067654E+02 0.31112683743E+02 0.30677462922E+02
 0.30459110893E+02 0.30371084952E+02 0.30369904611E+02 0.30457941334E+02 0.30680253482E+02
 0.31117143309E+02 0.31849995229E+02 0.32880589588E+02 0.34028975031E+02 0.34855120497E+02
 0.34673644152E+02 0.32780144633E+02 0.28894765654E+02 0.23601143729E+02 0.18397750929E+02
 0.20599701868E+02 0.19418295011E+02 0.20599670162E+02 0.23599939815E+02 0.27118132712E+02
 0.29835848112E+02 0.31031102075E+02 0.30730943661E+02 0.29434491847E+02 0.27731237168E+02
 0.26072393359E+02 0.24705645599E+02 0.23711220014E+02 0.23064407138E+02 0.22709331216E+02
 0.22596521038E+02 0.22708717890E+02 0.23064783007E+02 0.23713151042E+02 0.24710048169E+02
 0.26075008358E+02 0.27728452669E+02 0.29427273062E+02 0.30726372733E+02 0.31030838443E+02
 0.29837968782E+02 0.27120850712E+02 0.23601165537E+02 0.27474198235E+02 0.26441581463E+02
 0.26441781674E+02 0.27474533230E+02 0.28894874162E+02 0.29836424380E+02 0.29725525910E+02
 0.28513861277E+02 0.26559393658E+02 0.24335980178E+02 0.22209517999E+02 0.20389426450E+02
 0.18965789488E+02 0.17951900531E+02 0.17311666016E+02 0.17004856935E+02 0.17005592034E+02
 0.17313407899E+02 0.17953802860E+02 0.18967494139E+02 0.20387294846E+02 0.22204598334E+02
 0.24332406509E+02 0.26559116281E+02 0.28515057601E+02 0.29727254140E+02 0.29837937778E+02
 0.28894786044E+02 0.33693207819E+02 0.34004280737E+02 0.34055002156E+02 0.34005225344E+02
 0.33694869143E+02 0.32781170825E+02 0.31028655584E+02 0.28509453879E+02 0.25562992165E+02
 0.22594933662E+02 0.19907750866E+02 0.17651336009E+02 0.15864370557E+02 0.14529882020E+02
 0.13618414364E+02 0.13091281856E+02 0.12919449632E+02 0.13091946262E+02 0.13618656076E+02
 0.14528062780E+02 0.15858595766E+02 0.17646779543E+02 0.19906770390E+02 0.22597712763E+02
 0.25568257624E+02 0.28515042016E+02 0.31030806056E+02 0.32780089312E+02 0.37961769472E+02
 0.40269645769E+02 0.41443781381E+02 0.41444596043E+02 0.40271868815E+02 0.37965194922E+02
 0.34677578402E+02 0.30727944208E+02 0.26556129813E+02 0.22592548474E+02 0.19129131628E+02
 0.16284124712E+02 0.14055172553E+02 0.12386155131E+02 0.11201374606E+02 0.10443951754E+02
 0.10075015260E+02 0.10075098050E+02 0.10444015409E+02 0.11200611702E+02 0.12384752778E+02
 0.14055782460E+02 0.16285344145E+02 0.19132324244E+02 0.22597737652E+02 0.26559126323E+02
 0.30726341373E+02 0.34673653704E+02 0.40080760466E+02 0.44458366697E+02 0.47375491949E+02
 0.48398139554E+02 0.47372123392E+02 0.44454829279E+02 0.40080060193E+02 0.34858891988E+02
 0.29434525270E+02 0.24337170754E+02 0.19904548757E+02 0.16279731053E+02 0.13454041313E+02
 0.11334247946E+02 0.98136804079E+01 0.87924540046E+01 0.82035609243E+01 0.80108678552E+01
 0.82029202711E+01 0.87911755661E+01 0.98127412775E+01 0.11335950278E+02 0.13457155802E+02
 0.16285360343E+02 0.19906836510E+02 0.24332422351E+02 0.29427269653E+02 0.34855127144E+02
 0.40644999735E+02 0.46831721420E+02 0.51681281927E+02 0.54358026067E+02 0.54357093809E+02
 0.51679266900E+02 0.46829683288E+02 0.40645070436E+02 0.34030874104E+02 0.27731810104E+02
 0.22209634425E+02 0.17648878539E+02 0.14053159889E+02 0.11334168101E+02 0.93552960225E+01
 0.79904783826E+01 0.71362210807E+01 0.67248167107E+01 0.67247817422E+01 0.71360461956E+01
 0.79909256915E+01 0.93566712964E+01 0.11335895517E+02 0.14055764211E+02 0.17646803334E+02
 0.22204637254E+02 0.27728382746E+02 0.34028987214E+02 0.40482949202E+02 0.48185080877E+02
 0.54950226253E+02 0.59626004878E+02 0.61301108158E+02 0.59625585750E+02 0.54946724565E+02
 0.48179046781E+02 0.40478349270E+02 0.32879701289E+02 0.26075732089E+02 0.20390664829E+02
 0.15864391432E+02 0.12386128398E+02 0.98124682079E+01 0.79898818552E+01 0.67882990069E+01
 0.61081230323E+01 0.58879608189E+01 0.61081210873E+01 0.67888632884E+01 0.79909248274E+01
 0.98126910925E+01 0.12384673093E+02 0.15858611701E+02 0.20387302188E+02 0.26074991905E+02
 0.32880479470E+02 0.40228887970E+02 0.49271512363E+02 0.57931681692E+02 0.64849397805E+02
 0.68713545803E+02 0.68716499879E+02 0.64856027942E+02 0.57937210540E+02 0.49268255492E+02
 0.40220059338E+02 0.31846461893E+02 0.24710969348E+02 0.18967991660E+02 0.14530899799E+02
 0.11201532243E+02 0.87910533699E+01 0.71359535399E+01 0.61080871030E+01 0.56176885229E+01
 0.56175493071E+01 0.61081536904E+01 0.71361115268E+01 0.87911765719E+01 0.11200594497E+02
 0.14528040587E+02 0.18967551263E+02 0.24710034013E+02 0.31849987577E+02 0.40176162131E+02
 0.50481382051E+02 0.61058013656E+02 0.70426766870E+02 0.76945676121E+02 0.79290452647E+02
 0.76947346785E+02 0.70428890782E+02 0.61062213057E+02 0.50489677780E+02 0.40174913435E+02
 0.31110132329E+02 0.23710928422E+02 0.17951484827E+02 0.13619456141E+02 0.10445100885E+02
 0.82034063897E+01 0.67249439398E+01 0.58879473724E+01 0.56176903132E+01 0.58879362215E+01
 0.67248392995E+01 0.82029894613E+01 0.10444034404E+02 0.13618647414E+02 0.17953821498E+02
 0.23713216823E+02 0.31117152752E+02 0.40339865774E+02 0.51820572789E+02 0.64289322921E+02
 0.76332240328E+02 0.86047825229E+02 0.91510977637E+02 0.91511165647E+02 0.86050032023E+02
 0.76338811719E+02 0.64291707810E+02 0.51822650621E+02 0.40344954253E+02 0.30675506051E+02
 0.23063073873E+02 0.17312312123E+02 0.13092072405E+02 0.10075458075E+02 0.80108659088E+01
 0.67249695302E+01 0.61081505635E+01 0.61079951048E+01 0.67247335630E+01 0.80108962418E+01
 0.10075208593E+02 0.13091841262E+02 0.17313363670E+02 0.23064796232E+02 0.30680394456E+02
 0.40596410803E+02 0.53082547720E+02 0.67378089555E+02 0.82258494245E+02 0.95589466890E+02
 0.10490271085E+03 0.10824971378E+03 0.10489547712E+03 0.95579173192E+02 0.82254533165E+02
 0.67383575096E+02 0.53083155221E+02 0.40601694740E+02 0.30459444195E+02 0.22708391729E+02
 0.17005000614E+02 0.12918960428E+02 0.10074958848E+02 0.82037373806E+01 0.71359353048E+01
 0.67886054004E+01 0.71355930616E+01 0.82038171328E+01 0.10074949942E+02 0.12919771960E+02
 0.17004972221E+02 0.22709007830E+02 0.30457845584E+02 0.40805258187E+02 0.54061870006E+02
 0.69974144322E+02 0.87491446506E+02 0.10430890228E+03 0.11759573942E+03 0.12491466461E+03
 0.12491438674E+03 0.11759155212E+03 0.10430142545E+03 0.87482188351E+02 0.69976270289E+02
 0.54066226991E+02 0.40807815228E+02 0.30372243978E+02 0.22595214993E+02 0.17005575278E+02
 0.13091452516E+02 0.10444767640E+02 0.87913848244E+01 0.79904708872E+01 0.79899872849E+01
 0.87921235560E+01 0.10444266004E+02 0.13091816091E+02 0.17004357631E+02 0.22596175427E+02
 0.30370228413E+02 0.40883713317E+02 0.54598705989E+02 0.71693047850E+02 0.91284721741E+02
 0.11088201395E+03 0.12735948360E+03 0.13815848526E+03 0.14189287263E+03 0.13816228335E+03
 0.12736433896E+03 0.11088402549E+03 0.91281265573E+02 0.71690683817E+02 0.54598564942E+02
 0.40882122447E+02 0.30372487773E+02 0.22709252709E+02 0.17312197082E+02 0.13618443070E+02
 0.11201444583E+02 0.98136355814E+01 0.93552641300E+01 0.98127365267E+01 0.11201304151E+02
 0.13619597672E+02 0.17311595205E+02 0.22708383926E+02 0.30371004945E+02 0.40807569262E+02
 0.54600128599E+02 0.72291075908E+02 0.93231677484E+02 0.11471476088E+03 0.13314888251E+03
 0.14588943576E+03 0.15214872340E+03 0.15215570628E+03 0.14590193001E+03 0.13315729424E+03
 0.11471938152E+03 0.93231643339E+02 0.72286225358E+02 0.54597862405E+02 0.40806776496E+02
 0.30461602044E+02 0.23063891451E+02 0.17950692840E+02 0.14529304637E+02 0.12387659092E+02
 0.11334902531E+02 0.11333458755E+02 0.12384607052E+02 0.14531435642E+02 0.17952673880E+02
 0.23063602785E+02 0.30457593246E+02 0.40601821485E+02 0.54065332997E+02 0.71690159246E+02
 0.93228079388E+02 0.11593534395E+03 0.13554259535E+03 0.14882278963E+03 0.15550745726E+03
 0.15737145328E+03 0.15551185867E+03 0.14882635869E+03 0.13554281422E+03 0.11593654344E+03
 0.93232333666E+02 0.71689518826E+02 0.54063412172E+02 0.40601390729E+02 0.30677855001E+02
 0.23710955402E+02 0.18965733269E+02 0.15864393815E+02 0.14055380047E+02 0.13453993510E+02
 0.14052867080E+02 0.15864388874E+02 0.18968017852E+02 0.23711205943E+02 0.30675127017E+02
 0.40346742004E+02 0.53083830140E+02 0.69973150562E+02 0.91275086191E+02 0.11471771297E+03
 0.13554773288E+03 0.14937184168E+03 0.15540484962E+03 0.15671591262E+03 0.15671125345E+03
 0.15539772146E+03 0.14936083742E+03 0.13554441425E+03 0.11472163504E+03 0.91284638465E+02
 0.69972653602E+02 0.53082515096E+02 0.40345549153E+02 0.31113415771E+02 0.24707684116E+02
 0.20390039072E+02 0.17649602231E+02 0.16283017291E+02 0.16280822276E+02 0.17650655455E+02
 0.20390141935E+02 0.24708916675E+02 0.31109390858E+02 0.40174908789E+02 0.51822250286E+02
 0.67382849006E+02 0.87479833679E+02 0.11088320232E+03 0.13315712901E+03 0.14883201977E+03
 0.15540289909E+03 0.15559286165E+03 0.15475631707E+03 0.15559178260E+03 0.15539443226E+03
 0.14882316769E+03 0.13315808047E+03 0.11088821409E+03 0.87482515840E+02 0.67380080091E+02
 0.51822619274E+02 0.40178088961E+02 0.31846457927E+02 0.26072543477E+02 0.22209686226E+02
 0.19907793474E+02 0.19129144866E+02 0.19904578189E+02 0.22209530881E+02 0.26075634668E+02
 0.31846071340E+02 0.40220251014E+02 0.50487502861E+02 0.64290711478E+02 0.82257000092E+02
 0.10430368016E+03 0.12736249451E+03 0.14589621034E+03 0.15550551877E+03 0.15671099212E+03
 0.15475704446E+03 0.15475724314E+03 0.15671436325E+03 0.15550580502E+03 0.14590021771E+03
 0.12736534873E+03 0.10430575004E+03 0.82251327687E+02 0.64290813086E+02 0.50490598095E+02
 0.40223827504E+02 0.32875868656E+02 0.27730832233E+02 0.24338093864E+02 0.22596363722E+02
 0.22591123957E+02 0.24335041225E+02 0.27732145117E+02 0.32881713742E+02 0.40478105602E+02
 0.49267631945E+02 0.61062381713E+02 0.76339017882E+02 0.95581276990E+02 0.11759181927E+03
 0.13816029001E+03 0.15214791866E+03 0.15736200667E+03 0.15671151694E+03 0.15559607354E+03
 0.15671979964E+03 0.15737147417E+03 0.15215086777E+03 0.13816113925E+03 0.11759422435E+03
 0.95578890075E+02 0.76335631832E+02 0.61062260930E+02 0.49271484151E+02 0.40478372546E+02
 0.34027565425E+02 0.29434498362E+02 0.26559311389E+02 0.25563031377E+02 0.26556093185E+02
 0.29434498670E+02 0.34030433605E+02 0.40642708411E+02 0.48178302546E+02 0.57937817366E+02
 0.70428810964E+02 0.86047992431E+02 0.10489603361E+03 0.12491794559E+03 0.14189520496E+03
 0.15214770154E+03 0.15549873906E+03 0.15540177805E+03 0.15540925986E+03 0.15551272719E+03
 0.15214730702E+03 0.14189183528E+03 0.12491518029E+03 0.10489850689E+03 0.86046957023E+02
 0.70427763986E+02 0.57938335546E+02 0.48182090924E+02 0.40642124227E+02 0.34857767988E+02
 0.30729052009E+02 0.28512443226E+02 0.28510906862E+02 0.30729804499E+02 0.34858411179E+02
 0.40080533756E+02 0.46829623939E+02 0.54946578461E+02 0.64853612287E+02 0.76945138365E+02
 0.91508229186E+02 0.10825058589E+03 0.12491897372E+03 0.13816276178E+03 0.14589519136E+03
 0.14882652192E+03 0.14936845958E+03 0.14882528229E+03 0.14589012909E+03 0.13815717602E+03
 0.12491489919E+03 0.10825190243E+03 0.91511041396E+02 0.76945024465E+02 0.64855931072E+02
 0.54949219608E+02 0.46829642184E+02 0.40077807063E+02 0.34677498736E+02 0.31031166562E+02
 0.29725445888E+02 0.31028845537E+02 0.34677489114E+02 0.37965483042E+02 0.44456746758E+02
 0.51679907266E+02 0.59625610050E+02 0.68715324855E+02 0.79289314051E+02 0.91507863546E+02
 0.10489690031E+03 0.11759720745E+03 0.12736387913E+03 0.13315667047E+03 0.13554492968E+03
 0.13554245469E+03 0.13314855483E+03 0.12735910875E+03 0.11759415102E+03 0.10490541837E+03
 0.91511467528E+02 0.79289988347E+02 0.68714355044E+02 0.59627666118E+02 0.51679673643E+02
 0.44454367775E+02 0.37963097169E+02 0.32783274120E+02 0.29836870042E+02 0.29835371446E+02
 0.32780117069E+02 0.33695071897E+02 0.40271364512E+02 0.47372768600E+02 0.54357732583E+02
 0.61303544143E+02 0.68714234160E+02 0.76942856416E+02 0.86043532427E+02 0.95581466808E+02
 0.10430850246E+03 0.11088660403E+03 0.11471692287E+03 0.11593555466E+03 0.11471421985E+03
 0.11088105968E+03 0.10430689738E+03 0.95589373591E+02 0.86048942829E+02 0.76945913813E+02
 0.68712097339E+02 0.61301321253E+02 0.54358082617E+02 0.47372286302E+02 0.40270373268E+02
 0.33695098172E+02 0.28895871176E+02 0.27118329354E+02 0.28894547576E+02 0.27475020515E+02
 0.34004685408E+02 0.41443371597E+02 0.48397145614E+02 0.54359036594E+02 0.59627899337E+02
 0.64854615493E+02 0.70426779623E+02 0.76335644770E+02 0.82253376379E+02 0.87480743981E+02
 0.91277465087E+02 0.93230193326E+02 0.93233417097E+02 0.91285715736E+02 0.87490208716E+02
 0.82258368027E+02 0.76332321320E+02 0.70427671416E+02 0.64848491469E+02 0.59625893028E+02
 0.54358235850E+02 0.48399046895E+02 0.41443672502E+02 0.34005058698E+02 0.27474734807E+02
 0.23600831995E+02 0.23600168169E+02 0.20599401498E+02 0.26441951344E+02 0.34054276112E+02
 0.41442572917E+02 0.47372037582E+02 0.51680477432E+02 0.54949182376E+02 0.57939050027E+02
 0.61061840513E+02 0.64289897029E+02 0.67379955075E+02 0.69969972986E+02 0.71689638940E+02
 0.72291973760E+02 0.71694342516E+02 0.69974583432E+02 0.67377265238E+02 0.64289403196E+02
 0.61058295252E+02 0.57931789348E+02 0.54949708329E+02 0.51681445350E+02 0.47375842734E+02
 0.41443906241E+02 0.34054500168E+02 0.26441906178E+02 0.20600017538E+02 0.18397745054E+02
 0.15148919243E+02 0.19417939010E+02 0.26441973456E+02 0.34004638349E+02 0.40270212979E+02
 0.44456154481E+02 0.46829850577E+02 0.48181411480E+02 0.49270777900E+02 0.50488295198E+02
 0.51822384020E+02 0.53083269172E+02 0.54062950114E+02 0.54599208634E+02 0.54598923416E+02
 0.54062523828E+02 0.53083013015E+02 0.51820470402E+02 0.50481510028E+02 0.49271609757E+02
 0.48184919017E+02 0.46831535886E+02 0.44458497470E+02 0.40269790245E+02 0.34004141804E+02
 0.26441434847E+02 0.19418410623E+02 0.15148951375E+02 0.14585204636E+02 0.16369660894E+02
 0.21040423651E+02 0.26928407276E+02 0.32246949115E+02 0.35882402055E+02 0.37662446460E+02
 0.38103289351E+02 0.37928684778E+02 0.37686624480E+02 0.37637043457E+02 0.37791314480E+02
 0.38029027220E+02 0.38221356027E+02 0.38294156876E+02 0.38220120973E+02 0.38022667381E+02
 0.37785108553E+02 0.37635913779E+02 0.37688610112E+02 0.37931897693E+02 0.38109096376E+02
 0.37665487962E+02 0.35882244088E+02 0.32245688488E+02 0.26927084821E+02 0.21039926797E+02
 0.16369765079E+02 0.16369682040E+02 0.16369456820E+02 0.19126236746E+02 0.23533848097E+02
 0.28000072136E+02 0.31244160689E+02 0.32771635002E+02 0.32826344089E+02 0.32016323122E+02
 0.30944171586E+02 0.29992601229E+02 0.29312406781E+02 0.28902789258E+02 0.28693483115E+02
 0.28607190835E+02 0.28606715216E+02 0.28692941408E+02 0.28904380936E+02 0.29314045314E+02
 0.29994661451E+02 0.30948547294E+02 0.32019817692E+02 0.32825059860E+02 0.32768709984E+02
 0.31241544633E+02 0.27998316191E+02 0.23533660623E+02 0.19126452753E+02 0.21040023003E+02